 vasp.5.4.4.18Apr17-6-g9f103f2a35 (build Jul 09 2021 13:05:15) complex          
  
 executed on             LinuxIFC date 2021.11.04  19:03:55
 running on   16 total cores
 distrk:  each k-point on   16 cores,    1 groups
 distr:  one band on NCORES_PER_BAND=   4 cores,    4 groups


--------------------------------------------------------------------------------------------------------


 INCAR:
 POTCAR:    PAW_PBE H 15Jun2001                   
 POTCAR:    PAW_PBE C 08Apr2002                   
 POTCAR:    PAW_PBE H 15Jun2001                   
   VRHFIN =H: ultrasoft test                                                    
   LEXCH  = PE                                                                  
   EATOM  =    12.4884 eV,    0.9179 Ry                                         
                                                                                
   TITEL  = PAW_PBE H 15Jun2001                                                 
   LULTRA =        F    use ultrasoft PP ?                                      
   IUNSCR =        0    unscreen: 0-lin 1-nonlin 2-no                           
   RPACOR =    0.000    partial core radius                                     
   POMASS =    1.000; ZVAL   =    1.000    mass and valenz                      
   RCORE  =    1.100    outmost cutoff radius                                   
   RWIGS  =    0.700; RWIGS  =    0.370    wigner-seitz radius (au A)           
   ENMAX  =  250.000; ENMIN  =  200.000 eV                                      
   RCLOC  =    0.701    cutoff for local pot                                    
   LCOR   =        T    correct aug charges                                     
   LPAW   =        T    paw PP                                                  
   EAUG   =  400.000                                                            
   RMAX   =    1.123    core radius for proj-oper                               
   RAUG   =    1.200    factor for augmentation sphere                          
   RDEP   =    1.112    radius for radial grids                                 
   RDEPT  =    0.926    core radius for aug-charge                              
                                                                                
   Atomic configuration                                                         
    2 entries                                                                   
     n  l   j            E        occ.                                          
     1  0  0.50        -6.4927   1.0000                                         
     2  1  0.50        -3.4015   0.0000                                         
   Description                                                                  
     l       E           TYP  RCUT    TYP  RCUT                                 
     0     -6.4927494     23  1.100                                             
     0      6.8029130     23  1.100                                             
     1     -4.0817478     23  1.100                                             
  local pseudopotential read in
  atomic valenz-charges read in
  non local Contribution for L=           0  read in
    real space projection operators read in
  non local Contribution for L=           0  read in
    real space projection operators read in
  non local Contribution for L=           1  read in
    real space projection operators read in
    PAW grid and wavefunctions read in
 
   number of l-projection  operators is LMAX  =           3
   number of lm-projection operators is LMMAX =           5
 
 POTCAR:    PAW_PBE C 08Apr2002                   
   VRHFIN =C: s2p2                                                              
   LEXCH  = PE                                                                  
   EATOM  =   147.1560 eV,   10.8157 Ry                                         
                                                                                
   TITEL  = PAW_PBE C 08Apr2002                                                 
   LULTRA =        F    use ultrasoft PP ?                                      
   IUNSCR =        1    unscreen: 0-lin 1-nonlin 2-no                           
   RPACOR =    1.200    partial core radius                                     
   POMASS =   12.011; ZVAL   =    4.000    mass and valenz                      
   RCORE  =    1.500    outmost cutoff radius                                   
   RWIGS  =    1.630; RWIGS  =    0.863    wigner-seitz radius (au A)           
   ENMAX  =  400.000; ENMIN  =  300.000 eV                                      
   ICORE  =        2    local potential                                         
   LCOR   =        T    correct aug charges                                     
   LPAW   =        T    paw PP                                                  
   EAUG   =  644.873                                                            
   DEXC   =    0.000                                                            
   RMAX   =    1.529    core radius for proj-oper                               
   RAUG   =    1.300    factor for augmentation sphere                          
   RDEP   =    1.501    radius for radial grids                                 
   RDEPT  =    1.300    core radius for aug-charge                              
                                                                                
   Atomic configuration                                                         
    4 entries                                                                   
     n  l   j            E        occ.                                          
     1  0  0.50      -273.3789   2.0000                                         
     2  0  0.50       -13.7508   2.0000                                         
     2  1  0.50        -5.2854   2.0000                                         
     3  2  1.50        -5.4423   0.0000                                         
   Description                                                                  
     l       E           TYP  RCUT    TYP  RCUT                                 
     0    -13.7508458     23  1.200                                             
     0     -8.2022199     23  1.200                                             
     1     -5.2854383     23  1.500                                             
     1     34.0145650     23  1.500                                             
     2     -5.4423304      7  1.500                                             
  local pseudopotential read in
  partial core-charges read in
  partial kinetic energy density read in
  atomic valenz-charges read in
  non local Contribution for L=           0  read in
    real space projection operators read in
  non local Contribution for L=           0  read in
    real space projection operators read in
  non local Contribution for L=           1  read in
    real space projection operators read in
  non local Contribution for L=           1  read in
    real space projection operators read in
    PAW grid and wavefunctions read in
 
   number of l-projection  operators is LMAX  =           4
   number of lm-projection operators is LMMAX =           8
 
  PAW_PBE H 15Jun2001                   :
 energy of atom  1       EATOM=  -12.4884
 kinetic energy error for atom=    0.0098 (will be added to EATOM!!)
  PAW_PBE C 08Apr2002                   :
 energy of atom  2       EATOM= -147.1560
 kinetic energy error for atom=    0.0288 (will be added to EATOM!!)
 
 
 POSCAR:  H  C                                   
  positions in cartesian coordinates
  No initial velocities read in
 exchange correlation table for  LEXCH =        8
   RHO(1)=    0.500       N(1)  =     2000
   RHO(2)=  100.500       N(2)  =     4000
 


--------------------------------------------------------------------------------------------------------


 ion  position               nearest neighbor table
   1  0.538  0.407  0.361-   5 1.10
   2  0.394  0.480  0.438-   5 1.12
   3  0.552  0.565  0.443-   5 1.12
   4  0.528  0.417  0.539-   5 1.09
   5  0.503  0.467  0.445-   4 1.09   1 1.10   3 1.12   2 1.12
 

IMPORTANT INFORMATION: All symmetrisations will be switched off!
NOSYMM: (Re-)initialisation of all symmetry stuff for point group C_1.

 
 

Automatic generation of k-mesh.
 generate k-points for:    2    2    2
Space group operators:
 irot       det(A)        alpha          n_x          n_y          n_z        tau_x        tau_y        tau_z
    1     1.000000     0.000001     1.000000     0.000000     0.000000     0.000000     0.000000     0.000000
 
 Subroutine IBZKPT returns following result:
 ===========================================
 
 Found      4 irreducible k-points:
 
 Following reciprocal coordinates:
            Coordinates               Weight
  0.250000  0.250000  0.250000      2.000000
 -0.250000  0.250000  0.250000      2.000000
  0.250000 -0.250000  0.250000      2.000000
 -0.250000 -0.250000  0.250000      2.000000
 
 Following cartesian coordinates:
            Coordinates               Weight
  0.024549  0.024733  0.025397      2.000000
 -0.024549  0.023823  0.025612      2.000000
  0.024549 -0.023823  0.025390      2.000000
 -0.024549 -0.024733  0.025605      2.000000
 


--------------------------------------------------------------------------------------------------------




 Dimension of arrays:
   k-points           NKPTS =      4   k-points in BZ     NKDIM =      4   number of bands    NBANDS=      8
   number of dos      NEDOS =    301   number of ions     NIONS =      5
   non local maximal  LDIM  =      4   non local SUM 2l+1 LMDIM =      8
   total plane-waves  NPLWV = 313600
   max r-space proj   IRMAX =      1   max aug-charges    IRDMAX=   3799
   dimension x,y,z NGX =    70 NGY =   70 NGZ =   64
   dimension x,y,z NGXF=   140 NGYF=  140 NGZF=  128
   support grid    NGXF=   140 NGYF=  140 NGZF=  128
   ions per type =               4   1
   NGX,Y,Z   is equivalent  to a cutoff of  11.43, 11.30, 10.85 a.u.
   NGXF,Y,Z  is equivalent  to a cutoff of  22.85, 22.60, 21.71 a.u.

 SYSTEM =  unknown system                          
 POSCAR =   H  C                                   

 Startparameter for this run:
   NWRITE =      2    write-flag & timer
   PREC   = a         normal or accurate (medium, high low for compatibility)
   ISTART =      0    job   : 0-new  1-cont  2-samecut
   ICHARG =      2    charge: 1-file 2-atom 10-const
   ISPIN  =      1    spin polarized calculation?
   LNONCOLLINEAR =      F non collinear calculations
   LSORBIT =      F    spin-orbit coupling
   INIWAV =      1    electr: 0-lowe 1-rand  2-diag
   LASPH  =      F    aspherical Exc in radial PAW
   METAGGA=      F    non-selfconsistent MetaGGA calc.

 Electronic Relaxation 1
   ENCUT  =  400.0 eV  29.40 Ry    5.42 a.u.  16.61 16.80 15.99*2*pi/ulx,y,z
   ENINI  =  400.0     initial cutoff
   ENAUG  =  644.9 eV  augmentation charge cutoff
   NELM   =    120;   NELMIN=  4; NELMDL= -5     # of ELM steps 
   EDIFF  = 0.1E-05   stopping-criterion for ELM
   LREAL  =      F    real-space projection
   NLSPLINE    = F    spline interpolate recip. space projectors
   LCOMPAT=      F    compatible to vasp.4.4
   GGA_COMPAT  = T    GGA compatible to vasp.4.4-vasp.4.6
   LMAXPAW     = -100 max onsite density
   LMAXMIX     =    2 max onsite mixed and CHGCAR
   VOSKOWN=      0    Vosko Wilk Nusair interpolation
   ROPT   =    0.00000   0.00000
 Ionic relaxation
   EDIFFG = 0.1E-04   stopping-criterion for IOM
   NSW    =     10    number of steps for IOM
   NBLOCK =      1;   KBLOCK =     10    inner block; outer block 
   IBRION =      0    ionic relax: 0-MD 1-quasi-New 2-CG
   NFREE  =      0    steps in history (QN), initial steepest desc. (CG)
   ISIF   =      2    stress and relaxation
   IWAVPR =     12    prediction:  0-non 1-charg 2-wave 3-comb
   ISYM   =      0    0-nonsym 1-usesym 2-fastsym
   LCORR  =      T    Harris-Foulkes like correction to forces

   POTIM  = 0.5000    time-step for ionic-motion
   TEIN   =    0.0    initial temperature
   TEBEG  =    0.0;   TEEND  =   0.0 temperature during run
   SMASS  =  -3.00    Nose mass-parameter (am)
   estimated Nose-frequenzy (Omega)   =  0.10E-29 period in steps =****** mass=  -0.237E-26a.u.
   SCALEE = 1.0000    scale energy and forces
   NPACO  =    256;   APACO  = 16.0  distance and # of slots for P.C.
   PSTRESS=    0.0 pullay stress

  Mass of Ions in am
   POMASS =   1.00 12.01
  Ionic Valenz
   ZVAL   =   1.00  4.00
  Atomic Wigner-Seitz radii
   RWIGS  =  -1.00 -1.00
  virtual crystal weights 
   VCA    =   1.00  1.00
   NELECT =       8.0000    total number of electrons
   NUPDOWN=      -1.0000    fix difference up-down

 DOS related values:
   EMIN   =  10.00;   EMAX   =-10.00  energy-range for DOS
   EFERMI =   0.00
   ISMEAR =     0;   SIGMA  =   0.20  broadening in eV -4-tet -1-fermi 0-gaus

 Electronic relaxation 2 (details)
   IALGO  =     68    algorithm
   LDIAG  =      T    sub-space diagonalisation (order eigenvalues)
   LSUBROT=      F    optimize rotation matrix (better conditioning)
   TURBO    =      0    0=normal 1=particle mesh
   IRESTART =      0    0=no restart 2=restart with 2 vectors
   NREBOOT  =      0    no. of reboots
   NMIN     =      0    reboot dimension
   EREF     =   0.00    reference energy to select bands
   IMIX   =      4    mixing-type and parameters
     AMIX     =   0.40;   BMIX     =  1.00
     AMIX_MAG =   1.60;   BMIX_MAG =  1.00
     AMIN     =   0.10
     WC   =   100.;   INIMIX=   1;  MIXPRE=   1;  MAXMIX= -45

 Intra band minimization:
   WEIMIN = 0.0010     energy-eigenvalue tresh-hold
   EBREAK =  0.31E-07  absolut break condition
   DEPER  =   0.30     relativ break condition  

   TIME   =   0.40     timestep for ELM

  volume/ion in A,a.u.               =     205.61      1387.50
  Fermi-wavevector in a.u.,A,eV,Ry     =   0.324416  0.613057  1.431955  0.105246
  Thomas-Fermi vector in A             =   1.214521
 
 Write flags
   LWAVE        =      F    write WAVECAR
   LDOWNSAMPLE  =      F    k-point downsampling of WAVECAR
   LCHARG       =      F    write CHGCAR
   LVTOT        =      F    write LOCPOT, total local potential
   LVHAR        =      F    write LOCPOT, Hartree potential only
   LELF         =      F    write electronic localiz. function (ELF)
   LORBIT       =      0    0 simple, 1 ext, 2 COOP (PROOUT), +10 PAW based schemes


 Dipole corrections
   LMONO  =      F    monopole corrections only (constant potential shift)
   LDIPOL =      F    correct potential (dipole corrections)
   IDIPOL =      0    1-x, 2-y, 3-z, 4-all directions 
   EPSILON=  1.0000000 bulk dielectric constant

 Exchange correlation treatment:
   GGA     =    --    GGA type
   LEXCH   =     8    internal setting for exchange type
   VOSKOWN=      0    Vosko Wilk Nusair interpolation
   LHFCALC =     F    Hartree Fock is set to
   LHFONE  =     F    Hartree Fock one center treatment
   AEXX    =    0.0000 exact exchange contribution

 Linear response parameters
   LEPSILON=     F    determine dielectric tensor
   LRPA    =     F    only Hartree local field effects (RPA)
   LNABLA  =     F    use nabla operator in PAW spheres
   LVEL    =     F    velocity operator in full k-point grid
   LINTERFAST=   F  fast interpolation
   KINTER  =     0    interpolate to denser k-point grid
   CSHIFT  =0.1000    complex shift for real part using Kramers Kronig
   OMEGAMAX=  -1.0    maximum frequency
   DEG_THRESHOLD= 0.2000000E-02 threshold for treating states as degnerate
   RTIME   =   -0.100 relaxation time in fs
  (WPLASMAI=    0.000 imaginary part of plasma frequency in eV, 0.658/RTIME)
   DFIELD  = 0.0000000 0.0000000 0.0000000 field for delta impulse in time
 
 Orbital magnetization related:
   ORBITALMAG=     F  switch on orbital magnetization
   LCHIMAG   =     F  perturbation theory with respect to B field
   DQ        =  0.001000  dq finite difference perturbation B field
   LLRAUG    =     F  two centre corrections for induced B field



--------------------------------------------------------------------------------------------------------


 molecular dynamics for ions
   using a microcanonical ensemble
 charge density and potential will be updated during run
 non-spin polarized calculation
 RMM-DIIS sequential band-by-band and
  variant of blocked Davidson during initial phase
 perform sub-space diagonalisation
    before iterative eigenvector-optimisation
 modified Broyden-mixing scheme, WC =      100.0
 initial mixing is a Kerker type mixing with AMIX =  0.4000 and BMIX =      1.0000
 Hartree-type preconditioning will be used
 using additional bands            4
 reciprocal scheme for non local part
 use partial core corrections
 calculate Harris-corrections to forces 
   (improved forces if not selfconsistent)
 use gradient corrections 
 use of overlap-Matrix (Vanderbilt PP)
 Gauss-broadening in eV      SIGMA  =   0.20


--------------------------------------------------------------------------------------------------------


  energy-cutoff  :      400.00
  volume of cell :     1028.03
      direct lattice vectors                 reciprocal lattice vectors
    10.183751989  0.000000000  0.000000000     0.098195636  0.001819835 -0.000428885
    -0.190835482 10.297206090  0.000000000     0.000000000  0.097113721  0.000014256
     0.042844961 -0.001439168  9.803487914     0.000000000  0.000000000  0.102004512

  length of vectors
    10.183751989 10.298974291  9.803581643     0.098213434  0.097113722  0.102004512


 
 k-points in units of 2pi/SCALE and weight: read from INCAR                         
   0.02454891  0.02473339  0.02539747       0.250
  -0.02454891  0.02382347  0.02561191       0.250
   0.02454891 -0.02382347  0.02539034       0.250
  -0.02454891 -0.02473339  0.02560479       0.250
 
 k-points in reciprocal lattice and weights: read from INCAR                         
   0.25000000  0.25000000  0.25000000       0.250
  -0.25000000  0.25000000  0.25000000       0.250
   0.25000000 -0.25000000  0.25000000       0.250
  -0.25000000 -0.25000000  0.25000000       0.250
 
 position of ions in fractional coordinates (direct lattice) 
   0.53819913  0.40688490  0.36057906
   0.39408335  0.47982989  0.43807227
   0.55209006  0.56541781  0.44284098
   0.52822476  0.41666972  0.53902212
   0.50308095  0.46715838  0.44510899
 
 position of ions in cartesian coordinates  (Angst):
   5.41868741  4.18925869  3.53493245
   3.94044775  4.94027682  4.29463623
   5.53341997  5.82158636  4.34138618
   5.32288899  4.28975823  5.28429684
   5.05317192  4.80978554  4.36362064
 


--------------------------------------------------------------------------------------------------------


 k-point  1 :   0.2500 0.2500 0.2500  plane waves:   18674
 k-point  2 :  -0.2500 0.2500 0.2500  plane waves:   18685
 k-point  3 :   0.2500-0.2500 0.2500  plane waves:   18678
 k-point  4 :  -0.2500-0.2500 0.2500  plane waves:   18661

 maximum and minimum number of plane-waves per node :      4693     4641

 maximum number of plane-waves:     18685
 maximum index in each direction: 
   IXMAX=   16   IYMAX=   17   IZMAX=   15
   IXMIN=  -16   IYMIN=  -17   IZMIN=  -16


 parallel 3D FFT for wavefunctions:
    minimum data exchange during FFTs selected (reduces bandwidth)
 parallel 3D FFT for charge:
    minimum data exchange during FFTs selected (reduces bandwidth)


 total amount of memory used by VASP MPI-rank0    53610. kBytes
=======================================================================

   base      :      30000. kBytes
   nonl-proj :       2770. kBytes
   fftplans  :       7855. kBytes
   grid      :      12378. kBytes
   one-center:          6. kBytes
   wavefun   :        601. kBytes
 
     INWAV:  cpu time    0.0000: real time    0.0000
 Broyden mixing: mesh for mixing (old mesh)
   NGX = 33   NGY = 33   NGZ = 31
  (NGX  =140   NGY  =140   NGZ  =128)
  gives a total of  33759 points

 initial charge density was supplied:
 charge density of overlapping atoms calculated
 number of electron       8.0000000 magnetization 
 keeping initial charge density in first step


--------------------------------------------------------------------------------------------------------


 Maximum index for augmentation-charges          154 (set IRDMAX)


--------------------------------------------------------------------------------------------------------


 First call to EWALD:  gamma=   0.176
 Maximum number of real-space cells 3x 3x 3
 Maximum number of reciprocal cells 3x 3x 3

    FEWALD:  cpu time    0.0018: real time    0.0018


--------------------------------------- Iteration      1(   1)  ---------------------------------------


    POTLOK:  cpu time    0.1339: real time    0.1341
    SETDIJ:  cpu time    0.0025: real time    0.0025
     EDDAV:  cpu time    0.1819: real time    0.1829
       DOS:  cpu time    0.0016: real time    0.0016
    --------------------------------------------
      LOOP:  cpu time    0.3198: real time    0.3211

 eigenvalue-minimisations  :    96
 total energy-change (2. order) : 0.1584967E+02  (-0.2045286E+03)
 number of electron       8.0000000 magnetization 
 augmentation part        8.0000000 magnetization 

 Free energy of the ion-electron system (eV)
  ---------------------------------------------------
  alpha Z        PSCENC =         0.23564453
  Ewald energy   TEWEN  =       127.43660409
  -Hartree energ DENC   =      -243.86329274
  -exchange      EXHF   =         0.00000000
  -V(xc)+E(xc)   XCENC  =        21.94885726
  PAW double counting   =       117.05815612     -117.66307307
  entropy T*S    EENTRO =        -0.00000000
  eigenvalues    EBANDS =       -86.34497978
  atomic energy  EATOM  =       197.04175453
  Solvation  Ediel_sol  =         0.00000000
  ---------------------------------------------------
  free energy    TOTEN  =        15.84967094 eV

  energy without entropy =       15.84967094  energy(sigma->0) =       15.84967094


--------------------------------------------------------------------------------------------------------




--------------------------------------- Iteration      1(   2)  ---------------------------------------


     EDDAV:  cpu time    0.1359: real time    0.1361
       DOS:  cpu time    0.0005: real time    0.0005
    --------------------------------------------
      LOOP:  cpu time    0.1364: real time    0.1366

 eigenvalue-minimisations  :    64
 total energy-change (2. order) :-0.3781887E+02  (-0.3781887E+02)
 number of electron       8.0000000 magnetization 
 augmentation part        8.0000000 magnetization 

 Free energy of the ion-electron system (eV)
  ---------------------------------------------------
  alpha Z        PSCENC =         0.23564453
  Ewald energy   TEWEN  =       127.43660409
  -Hartree energ DENC   =      -243.86329274
  -exchange      EXHF   =         0.00000000
  -V(xc)+E(xc)   XCENC  =        21.94885726
  PAW double counting   =       117.05815612     -117.66307307
  entropy T*S    EENTRO =        -0.00000000
  eigenvalues    EBANDS =      -124.16385188
  atomic energy  EATOM  =       197.04175453
  Solvation  Ediel_sol  =         0.00000000
  ---------------------------------------------------
  free energy    TOTEN  =       -21.96920115 eV

  energy without entropy =      -21.96920115  energy(sigma->0) =      -21.96920115


--------------------------------------------------------------------------------------------------------




--------------------------------------- Iteration      1(   3)  ---------------------------------------


     EDDAV:  cpu time    0.1358: real time    0.1361
       DOS:  cpu time    0.0003: real time    0.0003
    --------------------------------------------
      LOOP:  cpu time    0.1361: real time    0.1364

 eigenvalue-minimisations  :    64
 total energy-change (2. order) :-0.5190153E+01  (-0.5190153E+01)
 number of electron       8.0000000 magnetization 
 augmentation part        8.0000000 magnetization 

 Free energy of the ion-electron system (eV)
  ---------------------------------------------------
  alpha Z        PSCENC =         0.23564453
  Ewald energy   TEWEN  =       127.43660409
  -Hartree energ DENC   =      -243.86329274
  -exchange      EXHF   =         0.00000000
  -V(xc)+E(xc)   XCENC  =        21.94885726
  PAW double counting   =       117.05815612     -117.66307307
  entropy T*S    EENTRO =        -0.00000000
  eigenvalues    EBANDS =      -129.35400472
  atomic energy  EATOM  =       197.04175453
  Solvation  Ediel_sol  =         0.00000000
  ---------------------------------------------------
  free energy    TOTEN  =       -27.15935400 eV

  energy without entropy =      -27.15935400  energy(sigma->0) =      -27.15935400


--------------------------------------------------------------------------------------------------------




--------------------------------------- Iteration      1(   4)  ---------------------------------------


     EDDAV:  cpu time    0.2306: real time    0.2311
       DOS:  cpu time    0.0003: real time    0.0003
    --------------------------------------------
      LOOP:  cpu time    0.2309: real time    0.2314

 eigenvalue-minimisations  :   128
 total energy-change (2. order) :-0.2234954E+00  (-0.2234954E+00)
 number of electron       8.0000000 magnetization 
 augmentation part        8.0000000 magnetization 

 Free energy of the ion-electron system (eV)
  ---------------------------------------------------
  alpha Z        PSCENC =         0.23564453
  Ewald energy   TEWEN  =       127.43660409
  -Hartree energ DENC   =      -243.86329274
  -exchange      EXHF   =         0.00000000
  -V(xc)+E(xc)   XCENC  =        21.94885726
  PAW double counting   =       117.05815612     -117.66307307
  entropy T*S    EENTRO =        -0.00000000
  eigenvalues    EBANDS =      -129.57750015
  atomic energy  EATOM  =       197.04175453
  Solvation  Ediel_sol  =         0.00000000
  ---------------------------------------------------
  free energy    TOTEN  =       -27.38284943 eV

  energy without entropy =      -27.38284943  energy(sigma->0) =      -27.38284943


--------------------------------------------------------------------------------------------------------




--------------------------------------- Iteration      1(   5)  ---------------------------------------


     EDDAV:  cpu time    0.1862: real time    0.1863
       DOS:  cpu time    0.0003: real time    0.0003
    CHARGE:  cpu time    0.0188: real time    0.0188
    MIXING:  cpu time    0.0038: real time    0.0039
    --------------------------------------------
      LOOP:  cpu time    0.2092: real time    0.2093

 eigenvalue-minimisations  :    96
 total energy-change (2. order) :-0.9171164E-04  (-0.9171180E-04)
 number of electron       8.0000000 magnetization 
 augmentation part        0.2213041 magnetization 

 Broyden mixing:
  rms(total) = 0.85218E+00    rms(broyden)= 0.85194E+00
  rms(prec ) = 0.12003E+01
  weight for this iteration     100.00

 Free energy of the ion-electron system (eV)
  ---------------------------------------------------
  alpha Z        PSCENC =         0.23564453
  Ewald energy   TEWEN  =       127.43660409
  -Hartree energ DENC   =      -243.86329274
  -exchange      EXHF   =         0.00000000
  -V(xc)+E(xc)   XCENC  =        21.94885726
  PAW double counting   =       117.05815612     -117.66307307
  entropy T*S    EENTRO =        -0.00000000
  eigenvalues    EBANDS =      -129.57759186
  atomic energy  EATOM  =       197.04175453
  Solvation  Ediel_sol  =         0.00000000
  ---------------------------------------------------
  free energy    TOTEN  =       -27.38294114 eV

  energy without entropy =      -27.38294114  energy(sigma->0) =      -27.38294114


--------------------------------------------------------------------------------------------------------




--------------------------------------- Iteration      1(   6)  ---------------------------------------


    POTLOK:  cpu time    0.1300: real time    0.1302
    SETDIJ:  cpu time    0.0019: real time    0.0026
    EDDIAG:  cpu time    0.0381: real time    0.0382
  RMM-DIIS:  cpu time    0.1754: real time    0.1757
    ORTHCH:  cpu time    0.0019: real time    0.0019
       DOS:  cpu time    0.0002: real time    0.0002
    CHARGE:  cpu time    0.0175: real time    0.0175
    MIXING:  cpu time    0.0042: real time    0.0042
    --------------------------------------------
      LOOP:  cpu time    0.3693: real time    0.3705

 eigenvalue-minimisations  :    64
 total energy-change (2. order) : 0.2769068E+01  (-0.5074456E+00)
 number of electron       7.9999999 magnetization 
 augmentation part        0.1950623 magnetization 

 Broyden mixing:
  rms(total) = 0.42102E+00    rms(broyden)= 0.42091E+00
  rms(prec ) = 0.54268E+00
  weight for this iteration     100.00

 eigenvalues of (default mixing * dielectric matrix)
  average eigenvalue GAMMA=   1.2966
  1.2966

 Free energy of the ion-electron system (eV)
  ---------------------------------------------------
  alpha Z        PSCENC =         0.23564453
  Ewald energy   TEWEN  =       127.43660409
  -Hartree energ DENC   =      -263.16013123
  -exchange      EXHF   =         0.00000000
  -V(xc)+E(xc)   XCENC  =        23.12088870
  PAW double counting   =       234.79439193     -235.56820885
  entropy T*S    EENTRO =        -0.00000000
  eigenvalues    EBANDS =      -108.51481647
  atomic energy  EATOM  =       197.04175453
  Solvation  Ediel_sol  =         0.00000000
  ---------------------------------------------------
  free energy    TOTEN  =       -24.61387277 eV

  energy without entropy =      -24.61387277  energy(sigma->0) =      -24.61387277


--------------------------------------------------------------------------------------------------------




--------------------------------------- Iteration      1(   7)  ---------------------------------------


    POTLOK:  cpu time    0.1291: real time    0.1292
    SETDIJ:  cpu time    0.0023: real time    0.0023
    EDDIAG:  cpu time    0.0345: real time    0.0345
  RMM-DIIS:  cpu time    0.1710: real time    0.1710
    ORTHCH:  cpu time    0.0020: real time    0.0020
       DOS:  cpu time    0.0002: real time    0.0001
    CHARGE:  cpu time    0.0160: real time    0.0160
    MIXING:  cpu time    0.0043: real time    0.0043
    --------------------------------------------
      LOOP:  cpu time    0.3593: real time    0.3595

 eigenvalue-minimisations  :    64
 total energy-change (2. order) : 0.4685553E+00  (-0.1101496E+00)
 number of electron       7.9999999 magnetization 
 augmentation part        0.1850329 magnetization 

 Broyden mixing:
  rms(total) = 0.22490E+00    rms(broyden)= 0.22483E+00
  rms(prec ) = 0.27132E+00
  weight for this iteration     100.00

 eigenvalues of (default mixing * dielectric matrix)
  average eigenvalue GAMMA=   1.8388
  1.4427  2.2349

 Free energy of the ion-electron system (eV)
  ---------------------------------------------------
  alpha Z        PSCENC =         0.23564453
  Ewald energy   TEWEN  =       127.43660409
  -Hartree energ DENC   =      -274.39702765
  -exchange      EXHF   =         0.00000000
  -V(xc)+E(xc)   XCENC  =        23.94993399
  PAW double counting   =       355.09730366     -355.90697397
  entropy T*S    EENTRO =        -0.00000000
  eigenvalues    EBANDS =       -97.60255664
  atomic energy  EATOM  =       197.04175453
  Solvation  Ediel_sol  =         0.00000000
  ---------------------------------------------------
  free energy    TOTEN  =       -24.14531746 eV

  energy without entropy =      -24.14531746  energy(sigma->0) =      -24.14531746


--------------------------------------------------------------------------------------------------------




--------------------------------------- Iteration      1(   8)  ---------------------------------------


    POTLOK:  cpu time    0.1294: real time    0.1295
    SETDIJ:  cpu time    0.0023: real time    0.0023
    EDDIAG:  cpu time    0.0341: real time    0.0341
  RMM-DIIS:  cpu time    0.1712: real time    0.1712
    ORTHCH:  cpu time    0.0016: real time    0.0016
       DOS:  cpu time    0.0003: real time    0.0003
    CHARGE:  cpu time    0.0160: real time    0.0160
    MIXING:  cpu time    0.0044: real time    0.0044
    --------------------------------------------
      LOOP:  cpu time    0.3592: real time    0.3594

 eigenvalue-minimisations  :    64
 total energy-change (2. order) : 0.1443245E+00  (-0.1628677E-01)
 number of electron       7.9999999 magnetization 
 augmentation part        0.1836805 magnetization 

 Broyden mixing:
  rms(total) = 0.22828E-01    rms(broyden)= 0.22801E-01
  rms(prec ) = 0.51797E-01
  weight for this iteration     100.00

 eigenvalues of (default mixing * dielectric matrix)
  average eigenvalue GAMMA=   1.5415
  2.2479  0.9835  1.3932

 Free energy of the ion-electron system (eV)
  ---------------------------------------------------
  alpha Z        PSCENC =         0.23564453
  Ewald energy   TEWEN  =       127.43660409
  -Hartree energ DENC   =      -279.79741235
  -exchange      EXHF   =         0.00000000
  -V(xc)+E(xc)   XCENC  =        24.48513607
  PAW double counting   =       459.72880683     -460.50713114
  entropy T*S    EENTRO =        -0.00000000
  eigenvalues    EBANDS =       -92.62439550
  atomic energy  EATOM  =       197.04175453
  Solvation  Ediel_sol  =         0.00000000
  ---------------------------------------------------
  free energy    TOTEN  =       -24.00099293 eV

  energy without entropy =      -24.00099293  energy(sigma->0) =      -24.00099293


--------------------------------------------------------------------------------------------------------




--------------------------------------- Iteration      1(   9)  ---------------------------------------


    POTLOK:  cpu time    0.1314: real time    0.1315
    SETDIJ:  cpu time    0.0020: real time    0.0020
    EDDIAG:  cpu time    0.0348: real time    0.0348
  RMM-DIIS:  cpu time    0.1726: real time    0.1731
    ORTHCH:  cpu time    0.0018: real time    0.0017
       DOS:  cpu time    0.0002: real time    0.0002
    CHARGE:  cpu time    0.0162: real time    0.0162
    MIXING:  cpu time    0.0046: real time    0.0045
    --------------------------------------------
      LOOP:  cpu time    0.3634: real time    0.3641

 eigenvalue-minimisations  :    64
 total energy-change (2. order) : 0.5541513E-02  (-0.1076934E-02)
 number of electron       7.9999999 magnetization 
 augmentation part        0.1831324 magnetization 

 Broyden mixing:
  rms(total) = 0.19250E-01    rms(broyden)= 0.19246E-01
  rms(prec ) = 0.39605E-01
  weight for this iteration     100.00

 eigenvalues of (default mixing * dielectric matrix)
  average eigenvalue GAMMA=   2.0820
  1.0039  1.3609  2.9817  2.9817

 Free energy of the ion-electron system (eV)
  ---------------------------------------------------
  alpha Z        PSCENC =         0.23564453
  Ewald energy   TEWEN  =       127.43660409
  -Hartree energ DENC   =      -281.02611198
  -exchange      EXHF   =         0.00000000
  -V(xc)+E(xc)   XCENC  =        24.55199175
  PAW double counting   =       462.40416874     -463.18523694
  entropy T*S    EENTRO =        -0.00000000
  eigenvalues    EBANDS =       -91.45426615
  atomic energy  EATOM  =       197.04175453
  Solvation  Ediel_sol  =         0.00000000
  ---------------------------------------------------
  free energy    TOTEN  =       -23.99545142 eV

  energy without entropy =      -23.99545142  energy(sigma->0) =      -23.99545142


--------------------------------------------------------------------------------------------------------




--------------------------------------- Iteration      1(  10)  ---------------------------------------


    POTLOK:  cpu time    0.1249: real time    0.1250
    SETDIJ:  cpu time    0.0021: real time    0.0021
    EDDIAG:  cpu time    0.0333: real time    0.0333
  RMM-DIIS:  cpu time    0.1750: real time    0.1750
    ORTHCH:  cpu time    0.0014: real time    0.0014
       DOS:  cpu time    0.0002: real time    0.0002
    CHARGE:  cpu time    0.0157: real time    0.0157
    MIXING:  cpu time    0.0046: real time    0.0046
    --------------------------------------------
      LOOP:  cpu time    0.3571: real time    0.3573

 eigenvalue-minimisations  :    64
 total energy-change (2. order) : 0.6365194E-02  (-0.2433852E-02)
 number of electron       7.9999999 magnetization 
 augmentation part        0.1821039 magnetization 

 Broyden mixing:
  rms(total) = 0.27107E-01    rms(broyden)= 0.27105E-01
  rms(prec ) = 0.34632E-01
  weight for this iteration     100.00

 eigenvalues of (default mixing * dielectric matrix)
  average eigenvalue GAMMA=   1.7873
  3.0684  2.4009  0.9842  1.2416  1.2416

 Free energy of the ion-electron system (eV)
  ---------------------------------------------------
  alpha Z        PSCENC =         0.23564453
  Ewald energy   TEWEN  =       127.43660409
  -Hartree energ DENC   =      -283.19974915
  -exchange      EXHF   =         0.00000000
  -V(xc)+E(xc)   XCENC  =        24.62245776
  PAW double counting   =       447.28275734     -448.06721646
  entropy T*S    EENTRO =        -0.00000000
  eigenvalues    EBANDS =       -89.34133888
  atomic energy  EATOM  =       197.04175453
  Solvation  Ediel_sol  =         0.00000000
  ---------------------------------------------------
  free energy    TOTEN  =       -23.98908623 eV

  energy without entropy =      -23.98908623  energy(sigma->0) =      -23.98908623


--------------------------------------------------------------------------------------------------------




--------------------------------------- Iteration      1(  11)  ---------------------------------------


    POTLOK:  cpu time    0.1236: real time    0.1238
    SETDIJ:  cpu time    0.0020: real time    0.0020
    EDDIAG:  cpu time    0.0339: real time    0.0339
  RMM-DIIS:  cpu time    0.1369: real time    0.1370
    ORTHCH:  cpu time    0.0019: real time    0.0019
       DOS:  cpu time    0.0002: real time    0.0002
    CHARGE:  cpu time    0.0158: real time    0.0158
    MIXING:  cpu time    0.0047: real time    0.0047
    --------------------------------------------
      LOOP:  cpu time    0.3189: real time    0.3191

 eigenvalue-minimisations  :    64
 total energy-change (2. order) :-0.8733326E-03  (-0.8805695E-03)
 number of electron       7.9999999 magnetization 
 augmentation part        0.1824874 magnetization 

 Broyden mixing:
  rms(total) = 0.93787E-02    rms(broyden)= 0.93748E-02
  rms(prec ) = 0.14919E-01
  weight for this iteration     100.00

 eigenvalues of (default mixing * dielectric matrix)
  average eigenvalue GAMMA=   2.2704
  4.8221  3.0774  2.4262  1.2621  1.0174  1.0174

 Free energy of the ion-electron system (eV)
  ---------------------------------------------------
  alpha Z        PSCENC =         0.23564453
  Ewald energy   TEWEN  =       127.43660409
  -Hartree energ DENC   =      -283.09449474
  -exchange      EXHF   =         0.00000000
  -V(xc)+E(xc)   XCENC  =        24.63692315
  PAW double counting   =       456.20410715     -456.98089005
  entropy T*S    EENTRO =        -0.00000000
  eigenvalues    EBANDS =       -89.46960822
  atomic energy  EATOM  =       197.04175453
  Solvation  Ediel_sol  =         0.00000000
  ---------------------------------------------------
  free energy    TOTEN  =       -23.98995956 eV

  energy without entropy =      -23.98995956  energy(sigma->0) =      -23.98995956


--------------------------------------------------------------------------------------------------------




--------------------------------------- Iteration      1(  12)  ---------------------------------------


    POTLOK:  cpu time    0.1166: real time    0.1168
    SETDIJ:  cpu time    0.0021: real time    0.0021
    EDDIAG:  cpu time    0.0833: real time    0.0850
  RMM-DIIS:  cpu time    0.1390: real time    0.1391
    ORTHCH:  cpu time    0.0020: real time    0.0020
       DOS:  cpu time    0.0002: real time    0.0002
    CHARGE:  cpu time    0.0157: real time    0.0158
    MIXING:  cpu time    0.0047: real time    0.0047
    --------------------------------------------
      LOOP:  cpu time    0.3637: real time    0.3656

 eigenvalue-minimisations  :    64
 total energy-change (2. order) :-0.9193400E-02  (-0.2929117E-03)
 number of electron       7.9999999 magnetization 
 augmentation part        0.1826684 magnetization 

 Broyden mixing:
  rms(total) = 0.11786E-01    rms(broyden)= 0.11784E-01
  rms(prec ) = 0.15436E-01
  weight for this iteration     100.00

 eigenvalues of (default mixing * dielectric matrix)
  average eigenvalue GAMMA=   2.0145
  4.7887  2.9289  2.4216  1.2042  1.0140  1.0140  0.7304

 Free energy of the ion-electron system (eV)
  ---------------------------------------------------
  alpha Z        PSCENC =         0.23564453
  Ewald energy   TEWEN  =       127.43660409
  -Hartree energ DENC   =      -283.31808262
  -exchange      EXHF   =         0.00000000
  -V(xc)+E(xc)   XCENC  =        24.62885830
  PAW double counting   =       452.86877287     -453.64493437
  entropy T*S    EENTRO =        -0.00000000
  eigenvalues    EBANDS =       -89.24777030
  atomic energy  EATOM  =       197.04175453
  Solvation  Ediel_sol  =         0.00000000
  ---------------------------------------------------
  free energy    TOTEN  =       -23.99915296 eV

  energy without entropy =      -23.99915296  energy(sigma->0) =      -23.99915296


--------------------------------------------------------------------------------------------------------




--------------------------------------- Iteration      1(  13)  ---------------------------------------


    POTLOK:  cpu time    0.1172: real time    0.1174
    SETDIJ:  cpu time    0.0018: real time    0.0018
    EDDIAG:  cpu time    0.0343: real time    0.0343
  RMM-DIIS:  cpu time    0.1393: real time    0.1393
    ORTHCH:  cpu time    0.0019: real time    0.0019
       DOS:  cpu time    0.0002: real time    0.0002
    CHARGE:  cpu time    0.0158: real time    0.0158
    MIXING:  cpu time    0.0051: real time    0.0051
    --------------------------------------------
      LOOP:  cpu time    0.3156: real time    0.3158

 eigenvalue-minimisations  :    64
 total energy-change (2. order) :-0.6038682E-03  (-0.1055079E-03)
 number of electron       7.9999999 magnetization 
 augmentation part        0.1824192 magnetization 

 Broyden mixing:
  rms(total) = 0.41674E-02    rms(broyden)= 0.41669E-02
  rms(prec ) = 0.59172E-02
  weight for this iteration     100.00

 eigenvalues of (default mixing * dielectric matrix)
  average eigenvalue GAMMA=   2.4115
  6.0676  4.0880  2.4224  2.3988  1.2172  1.2172  0.9897  0.8910

 Free energy of the ion-electron system (eV)
  ---------------------------------------------------
  alpha Z        PSCENC =         0.23564453
  Ewald energy   TEWEN  =       127.43660409
  -Hartree energ DENC   =      -283.49770319
  -exchange      EXHF   =         0.00000000
  -V(xc)+E(xc)   XCENC  =        24.63366989
  PAW double counting   =       452.65047336     -453.42898463
  entropy T*S    EENTRO =        -0.00000000
  eigenvalues    EBANDS =       -89.07121541
  atomic energy  EATOM  =       197.04175453
  Solvation  Ediel_sol  =         0.00000000
  ---------------------------------------------------
  free energy    TOTEN  =       -23.99975683 eV

  energy without entropy =      -23.99975683  energy(sigma->0) =      -23.99975683


--------------------------------------------------------------------------------------------------------




--------------------------------------- Iteration      1(  14)  ---------------------------------------


    POTLOK:  cpu time    0.1161: real time    0.1162
    SETDIJ:  cpu time    0.0022: real time    0.0022
    EDDIAG:  cpu time    0.0334: real time    0.0334
  RMM-DIIS:  cpu time    0.1411: real time    0.1411
    ORTHCH:  cpu time    0.0014: real time    0.0014
       DOS:  cpu time    0.0002: real time    0.0002
    CHARGE:  cpu time    0.0157: real time    0.0157
    MIXING:  cpu time    0.0049: real time    0.0049
    --------------------------------------------
      LOOP:  cpu time    0.3150: real time    0.3152

 eigenvalue-minimisations  :    64
 total energy-change (2. order) :-0.2860879E-02  (-0.1144050E-03)
 number of electron       7.9999999 magnetization 
 augmentation part        0.1823173 magnetization 

 Broyden mixing:
  rms(total) = 0.26092E-02    rms(broyden)= 0.26073E-02
  rms(prec ) = 0.34290E-02
  weight for this iteration     100.00

 eigenvalues of (default mixing * dielectric matrix)
  average eigenvalue GAMMA=   2.3366
  6.4545  3.9821  2.6166  2.3490  1.2169  1.2169  0.9284  0.9785  1.2862

 Free energy of the ion-electron system (eV)
  ---------------------------------------------------
  alpha Z        PSCENC =         0.23564453
  Ewald energy   TEWEN  =       127.43660409
  -Hartree energ DENC   =      -283.48680364
  -exchange      EXHF   =         0.00000000
  -V(xc)+E(xc)   XCENC  =        24.62342708
  PAW double counting   =       452.04419356     -452.82379961
  entropy T*S    EENTRO =        -0.00000000
  eigenvalues    EBANDS =       -89.07363824
  atomic energy  EATOM  =       197.04175453
  Solvation  Ediel_sol  =         0.00000000
  ---------------------------------------------------
  free energy    TOTEN  =       -24.00261771 eV

  energy without entropy =      -24.00261771  energy(sigma->0) =      -24.00261771


--------------------------------------------------------------------------------------------------------




--------------------------------------- Iteration      1(  15)  ---------------------------------------


    POTLOK:  cpu time    0.1139: real time    0.1140
    SETDIJ:  cpu time    0.0021: real time    0.0021
    EDDIAG:  cpu time    0.0338: real time    0.0342
  RMM-DIIS:  cpu time    0.1403: real time    0.1403
    ORTHCH:  cpu time    0.0016: real time    0.0016
       DOS:  cpu time    0.0002: real time    0.0002
    CHARGE:  cpu time    0.0156: real time    0.0156
    MIXING:  cpu time    0.0052: real time    0.0052
    --------------------------------------------
      LOOP:  cpu time    0.3127: real time    0.3132

 eigenvalue-minimisations  :    64
 total energy-change (2. order) :-0.2612735E-03  (-0.4266384E-05)
 number of electron       7.9999999 magnetization 
 augmentation part        0.1822689 magnetization 

 Broyden mixing:
  rms(total) = 0.18832E-02    rms(broyden)= 0.18829E-02
  rms(prec ) = 0.24978E-02
  weight for this iteration     100.00

 eigenvalues of (default mixing * dielectric matrix)
  average eigenvalue GAMMA=   2.5314
  7.5644  4.8201  2.7735  2.6464  2.1245  1.2507  1.2507  0.9920  0.9920  0.8994

 Free energy of the ion-electron system (eV)
  ---------------------------------------------------
  alpha Z        PSCENC =         0.23564453
  Ewald energy   TEWEN  =       127.43660409
  -Hartree energ DENC   =      -283.50107767
  -exchange      EXHF   =         0.00000000
  -V(xc)+E(xc)   XCENC  =        24.62477931
  PAW double counting   =       452.21021673     -452.98943130
  entropy T*S    EENTRO =        -0.00000000
  eigenvalues    EBANDS =       -89.06136920
  atomic energy  EATOM  =       197.04175453
  Solvation  Ediel_sol  =         0.00000000
  ---------------------------------------------------
  free energy    TOTEN  =       -24.00287898 eV

  energy without entropy =      -24.00287898  energy(sigma->0) =      -24.00287898


--------------------------------------------------------------------------------------------------------




--------------------------------------- Iteration      1(  16)  ---------------------------------------


    POTLOK:  cpu time    0.1151: real time    0.1153
    SETDIJ:  cpu time    0.0022: real time    0.0022
    EDDIAG:  cpu time    0.0334: real time    0.0334
  RMM-DIIS:  cpu time    0.1383: real time    0.1383
    ORTHCH:  cpu time    0.0017: real time    0.0017
       DOS:  cpu time    0.0002: real time    0.0002
    CHARGE:  cpu time    0.0160: real time    0.0160
    MIXING:  cpu time    0.0054: real time    0.0054
    --------------------------------------------
      LOOP:  cpu time    0.3123: real time    0.3125

 eigenvalue-minimisations  :    64
 total energy-change (2. order) :-0.2125146E-03  (-0.1159415E-04)
 number of electron       7.9999999 magnetization 
 augmentation part        0.1823239 magnetization 

 Broyden mixing:
  rms(total) = 0.62888E-03    rms(broyden)= 0.62831E-03
  rms(prec ) = 0.85962E-03
  weight for this iteration     100.00

 eigenvalues of (default mixing * dielectric matrix)
  average eigenvalue GAMMA=   2.5036
  7.8140  4.8836  3.3215  2.4342  2.1082  1.6421  1.2391  1.2391  1.0154  0.9211
  0.9211

 Free energy of the ion-electron system (eV)
  ---------------------------------------------------
  alpha Z        PSCENC =         0.23564453
  Ewald energy   TEWEN  =       127.43660409
  -Hartree energ DENC   =      -283.45209083
  -exchange      EXHF   =         0.00000000
  -V(xc)+E(xc)   XCENC  =        24.62304212
  PAW double counting   =       452.22104022     -452.99963282
  entropy T*S    EENTRO =        -0.00000000
  eigenvalues    EBANDS =       -89.10945335
  atomic energy  EATOM  =       197.04175453
  Solvation  Ediel_sol  =         0.00000000
  ---------------------------------------------------
  free energy    TOTEN  =       -24.00309150 eV

  energy without entropy =      -24.00309150  energy(sigma->0) =      -24.00309150


--------------------------------------------------------------------------------------------------------




--------------------------------------- Iteration      1(  17)  ---------------------------------------


    POTLOK:  cpu time    0.1185: real time    0.1186
    SETDIJ:  cpu time    0.0021: real time    0.0021
    EDDIAG:  cpu time    0.0335: real time    0.0335
  RMM-DIIS:  cpu time    0.1429: real time    0.1429
    ORTHCH:  cpu time    0.0016: real time    0.0016
       DOS:  cpu time    0.0002: real time    0.0002
    CHARGE:  cpu time    0.0160: real time    0.0160
    MIXING:  cpu time    0.0056: real time    0.0055
    --------------------------------------------
      LOOP:  cpu time    0.3203: real time    0.3204

 eigenvalue-minimisations  :    64
 total energy-change (2. order) :-0.3944189E-04  (-0.1869656E-05)
 number of electron       7.9999999 magnetization 
 augmentation part        0.1822988 magnetization 

 Broyden mixing:
  rms(total) = 0.34285E-03    rms(broyden)= 0.34283E-03
  rms(prec ) = 0.49644E-03
  weight for this iteration     100.00

 eigenvalues of (default mixing * dielectric matrix)
  average eigenvalue GAMMA=   2.6006
  8.5091  5.3081  3.9049  2.5759  2.5060  1.8979  1.2860  1.2860  1.0898  0.9958
  0.9235  0.9235

 Free energy of the ion-electron system (eV)
  ---------------------------------------------------
  alpha Z        PSCENC =         0.23564453
  Ewald energy   TEWEN  =       127.43660409
  -Hartree energ DENC   =      -283.49128718
  -exchange      EXHF   =         0.00000000
  -V(xc)+E(xc)   XCENC  =        24.62480490
  PAW double counting   =       452.20408394     -452.98297889
  entropy T*S    EENTRO =        -0.00000000
  eigenvalues    EBANDS =       -89.07175687
  atomic energy  EATOM  =       197.04175453
  Solvation  Ediel_sol  =         0.00000000
  ---------------------------------------------------
  free energy    TOTEN  =       -24.00313094 eV

  energy without entropy =      -24.00313094  energy(sigma->0) =      -24.00313094


--------------------------------------------------------------------------------------------------------




--------------------------------------- Iteration      1(  18)  ---------------------------------------


    POTLOK:  cpu time    0.1199: real time    0.1200
    SETDIJ:  cpu time    0.0021: real time    0.0021
    EDDIAG:  cpu time    0.0333: real time    0.0333
  RMM-DIIS:  cpu time    0.1114: real time    0.1122
    ORTHCH:  cpu time    0.0020: real time    0.0020
       DOS:  cpu time    0.0002: real time    0.0002
    CHARGE:  cpu time    0.0156: real time    0.0156
    MIXING:  cpu time    0.0057: real time    0.0057
    --------------------------------------------
      LOOP:  cpu time    0.2902: real time    0.2912

 eigenvalue-minimisations  :    48
 total energy-change (2. order) :-0.1148095E-04  (-0.1905652E-06)
 number of electron       7.9999999 magnetization 
 augmentation part        0.1823038 magnetization 

 Broyden mixing:
  rms(total) = 0.57199E-04    rms(broyden)= 0.57188E-04
  rms(prec ) = 0.94661E-04
  weight for this iteration     100.00

 eigenvalues of (default mixing * dielectric matrix)
  average eigenvalue GAMMA=   2.5650
  8.5676  5.4765  3.8059  2.9965  2.3789  2.0964  1.6047  1.2444  1.2444  0.8959
  1.0481  0.9927  0.9927

 Free energy of the ion-electron system (eV)
  ---------------------------------------------------
  alpha Z        PSCENC =         0.23564453
  Ewald energy   TEWEN  =       127.43660409
  -Hartree energ DENC   =      -283.47683892
  -exchange      EXHF   =         0.00000000
  -V(xc)+E(xc)   XCENC  =        24.62406795
  PAW double counting   =       452.18827757     -452.96704740
  entropy T*S    EENTRO =        -0.00000000
  eigenvalues    EBANDS =       -89.08560477
  atomic energy  EATOM  =       197.04175453
  Solvation  Ediel_sol  =         0.00000000
  ---------------------------------------------------
  free energy    TOTEN  =       -24.00314242 eV

  energy without entropy =      -24.00314242  energy(sigma->0) =      -24.00314242


--------------------------------------------------------------------------------------------------------




--------------------------------------- Iteration      1(  19)  ---------------------------------------


    POTLOK:  cpu time    0.1203: real time    0.1204
    SETDIJ:  cpu time    0.0021: real time    0.0022
    EDDIAG:  cpu time    0.0330: real time    0.0330
  RMM-DIIS:  cpu time    0.1105: real time    0.1105
    ORTHCH:  cpu time    0.0016: real time    0.0016
       DOS:  cpu time    0.0002: real time    0.0002
    CHARGE:  cpu time    0.0157: real time    0.0157
    MIXING:  cpu time    0.0058: real time    0.0058
    --------------------------------------------
      LOOP:  cpu time    0.2892: real time    0.2893

 eigenvalue-minimisations  :    48
 total energy-change (2. order) :-0.4013948E-05  (-0.1317173E-06)
 number of electron       7.9999999 magnetization 
 augmentation part        0.1823102 magnetization 

 Broyden mixing:
  rms(total) = 0.14927E-03    rms(broyden)= 0.14924E-03
  rms(prec ) = 0.20763E-03
  weight for this iteration     100.00

 eigenvalues of (default mixing * dielectric matrix)
  average eigenvalue GAMMA=   2.5612
  8.6497  5.5872  4.0382  3.2540  2.5440  2.4334  1.9890  1.2694  1.2694  1.0254
  1.0058  0.8925  0.9495  0.9495

 Free energy of the ion-electron system (eV)
  ---------------------------------------------------
  alpha Z        PSCENC =         0.23564453
  Ewald energy   TEWEN  =       127.43660409
  -Hartree energ DENC   =      -283.46931341
  -exchange      EXHF   =         0.00000000
  -V(xc)+E(xc)   XCENC  =        24.62356968
  PAW double counting   =       452.16027782     -452.93900272
  entropy T*S    EENTRO =        -0.00000000
  eigenvalues    EBANDS =       -89.09268096
  atomic energy  EATOM  =       197.04175453
  Solvation  Ediel_sol  =         0.00000000
  ---------------------------------------------------
  free energy    TOTEN  =       -24.00314643 eV

  energy without entropy =      -24.00314643  energy(sigma->0) =      -24.00314643


--------------------------------------------------------------------------------------------------------




--------------------------------------- Iteration      1(  20)  ---------------------------------------


    POTLOK:  cpu time    0.1198: real time    0.1200
    SETDIJ:  cpu time    0.0020: real time    0.0020
    EDDIAG:  cpu time    0.0333: real time    0.0333
  RMM-DIIS:  cpu time    0.1122: real time    0.1122
    ORTHCH:  cpu time    0.0017: real time    0.0017
       DOS:  cpu time    0.0002: real time    0.0002
    --------------------------------------------
      LOOP:  cpu time    0.2692: real time    0.2693

 eigenvalue-minimisations  :    48
 total energy-change (2. order) :-0.7029942E-06  (-0.2703081E-07)
 number of electron       7.9999999 magnetization 
 augmentation part        0.1823102 magnetization 

 Free energy of the ion-electron system (eV)
  ---------------------------------------------------
  alpha Z        PSCENC =         0.23564453
  Ewald energy   TEWEN  =       127.43660409
  -Hartree energ DENC   =      -283.47395907
  -exchange      EXHF   =         0.00000000
  -V(xc)+E(xc)   XCENC  =        24.62380249
  PAW double counting   =       452.16268334     -452.94144980
  entropy T*S    EENTRO =        -0.00000000
  eigenvalues    EBANDS =       -89.08822726
  atomic energy  EATOM  =       197.04175453
  Solvation  Ediel_sol  =         0.00000000
  ---------------------------------------------------
  free energy    TOTEN  =       -24.00314714 eV

  energy without entropy =      -24.00314714  energy(sigma->0) =      -24.00314714


--------------------------------------------------------------------------------------------------------




 average (electrostatic) potential at core
  the test charge radii are     0.5201  0.6991
  (the norm of the test charge is              1.0000)
       1 -41.5012       2 -41.3344       3 -41.3464       4 -41.5490       5 -58.0329
 
 
 
 E-fermi :  -8.1976     XC(G=0):  -0.6868     alpha+bet : -0.2049


 k-point     1 :       0.2500    0.2500    0.2500
  band No.  band energies     occupation 
      1     -16.8068      2.00000
      2      -9.4017      2.00000
      3      -9.1946      2.00000
      4      -9.1410      2.00000
      5      -0.3323      0.00000
      6       0.5352      0.00000
      7       0.6393      0.00000
      8       0.6980      0.00000

 k-point     2 :      -0.2500    0.2500    0.2500
  band No.  band energies     occupation 
      1     -16.8069      2.00000
      2      -9.4017      2.00000
      3      -9.1945      2.00000
      4      -9.1410      2.00000
      5      -0.3350      0.00000
      6       0.5399      0.00000
      7       0.6567      0.00000
      8       0.6916      0.00000

 k-point     3 :       0.2500   -0.2500    0.2500
  band No.  band energies     occupation 
      1     -16.8069      2.00000
      2      -9.4017      2.00000
      3      -9.1946      2.00000
      4      -9.1410      2.00000
      5      -0.3359      0.00000
      6       0.5406      0.00000
      7       0.6604      0.00000
      8       0.6950      0.00000

 k-point     4 :      -0.2500   -0.2500    0.2500
  band No.  band energies     occupation 
      1     -16.8068      2.00000
      2      -9.4017      2.00000
      3      -9.1945      2.00000
      4      -9.1410      2.00000
      5      -0.3316      0.00000
      6       0.5346      0.00000
      7       0.6371      0.00000
      8       0.6950      0.00000


--------------------------------------------------------------------------------------------------------


 soft charge-density along one line, spin component           1
         0         1         2         3         4         5         6         7         8         9
 total charge-density along one line
 
 pseudopotential strength for first ion, spin component:           1
 -2.341  -4.034  -0.001  -0.001   0.001
 -4.034  -6.865  -0.003  -0.004   0.002
 -0.001  -0.003  -0.337   0.002  -0.001
 -0.001  -0.004   0.002  -0.336  -0.001
  0.001   0.002  -0.001  -0.001  -0.338
 total augmentation occupancy for first ion, spin component:           1
  3.543  -0.638   0.244   0.323  -0.144
 -0.638   0.129  -0.045  -0.060   0.026
  0.244  -0.045   0.023   0.018  -0.008
  0.323  -0.060   0.018   0.034  -0.011
 -0.144   0.026  -0.008  -0.011   0.014


------------------------ aborting loop because EDIFF is reached ----------------------------------------


    CHARGE:  cpu time    0.0161: real time    0.0161
    FORLOC:  cpu time    0.0123: real time    0.0123
    FORNL :  cpu time    0.0200: real time    0.0200
    STRESS:  cpu time    0.1485: real time    0.1485
    FORCOR:  cpu time    0.1253: real time    0.1253
    FORHAR:  cpu time    0.0393: real time    0.0401
    MIXING:  cpu time    0.0057: real time    0.0057
    OFIELD:  cpu time    0.0000: real time    0.0000

  FORCE on cell =-STRESS in cart. coord.  units (eV):
  Direction    XX          YY          ZZ          XY          YZ          ZX
  --------------------------------------------------------------------------------------
  Alpha Z     0.23564     0.23564     0.23564
  Ewald      41.00979    42.30135    44.12544    -2.57686    -0.12825     0.64700
  Hartree    93.67128    92.76970    97.03744    -0.74325     0.01497     0.22762
  E(xc)     -27.07882   -27.06862   -27.10205    -0.00970     0.00034     0.00308
  Local    -193.88905  -193.61898  -200.08839     2.80196     0.05037    -0.77053
  n-local   -15.56859   -15.61208   -15.71604     0.02416     0.00903     0.00080
  augment     0.12426     0.11872     0.11943     0.00410     0.00067    -0.00074
  Kinetic   100.10882    99.66266   101.38344     0.44516    -0.01778    -0.15017
  Fock        0.00000     0.00000     0.00000     0.00000     0.00000     0.00000
  -------------------------------------------------------------------------------------
  Total      -1.38666    -1.21161    -0.00509    -0.05443    -0.07065    -0.04294
  in kB      -2.16109    -1.88827    -0.00793    -0.08482    -0.11011    -0.06693
  external pressure =       -1.35 kB  Pullay stress =        0.00 kB

  kinetic pressure (ideal gas correction) =      0.00 kB
  total pressure  =     -1.35 kB
  Total+kin.    -2.161      -1.888      -0.008      -0.085      -0.110      -0.067

 VOLUME and BASIS-vectors are now :
 -----------------------------------------------------------------------------
  energy-cutoff  :      400.00
  volume of cell :     1028.03
      direct lattice vectors                 reciprocal lattice vectors
    10.183751989  0.000000000  0.000000000     0.098195636  0.001819835 -0.000428885
    -0.190835482 10.297206090  0.000000000     0.000000000  0.097113721  0.000014256
     0.042844961 -0.001439168  9.803487914     0.000000000  0.000000000  0.102004512

  length of vectors
    10.183751989 10.298974291  9.803581643     0.098213434  0.097113722  0.102004512


 FORCES acting on ions
    electron-ion (+dipol)            ewald-force                    non-local-force                 convergence-correction
 -----------------------------------------------------------------------------------------------
   -.175E+02 0.297E+02 0.398E+02   0.192E+02 -.327E+02 -.440E+02   -.184E+01 0.313E+01 0.411E+01   0.138E-03 -.242E-03 -.293E-03
   0.511E+02 -.605E+01 0.318E+01   -.554E+02 0.649E+01 -.344E+01   0.510E+01 -.619E+00 0.319E+00   -.409E-03 0.422E-04 -.221E-04
   -.221E+02 -.467E+02 0.105E+01   0.240E+02 0.507E+02 -.116E+01   -.220E+01 -.468E+01 0.968E-01   0.182E-03 0.379E-03 -.644E-05
   -.130E+02 0.252E+02 -.446E+02   0.144E+02 -.278E+02 0.496E+02   -.141E+01 0.269E+01 -.469E+01   0.102E-03 -.204E-03 0.330E-03
   0.194E+01 -.282E+01 0.874E+00   -.224E+01 0.330E+01 -.102E+01   -.772E-01 0.162E+00 -.489E-01   0.194E-04 -.320E-04 0.121E-04
 -----------------------------------------------------------------------------------------------
   0.428E+00 -.687E+00 0.211E+00   -.178E-14 0.355E-14 0.000E+00   -.428E+00 0.687E+00 -.211E+00   0.323E-04 -.573E-04 0.205E-04
 
 
 POSITION                                       TOTAL-FORCE (eV/Angst)
 -----------------------------------------------------------------------------------
      5.41869      4.18926      3.53493        -0.081959      0.172627     -0.137443
      3.94045      4.94028      4.29464         0.770227     -0.175481      0.057190
      5.53342      5.82159      4.34139        -0.240503     -0.680234     -0.015741
      5.32289      4.28976      5.28430        -0.069345      0.047498      0.286707
      5.05317      4.80979      4.36362        -0.378734      0.635237     -0.190537
 -----------------------------------------------------------------------------------
    total drift:                               -0.000315     -0.000354      0.000176


--------------------------------------------------------------------------------------------------------



  FREE ENERGIE OF THE ION-ELECTRON SYSTEM (eV)
  ---------------------------------------------------
  free  energy   TOTEN  =       -24.00314714 eV

  energy  without entropy=      -24.00314714  energy(sigma->0) =      -24.00314714
 


--------------------------------------------------------------------------------------------------------


    POTLOK:  cpu time    0.1247: real time    0.1247


--------------------------------------------------------------------------------------------------------


           RANDOM_SEED =         172315642                0                0
           RANDOM_SEED =         172315642               30                0
   IONSTEP:  cpu time    0.0026: real time    0.0026

  ENERGY OF THE ELECTRON-ION-THERMOSTAT SYSTEM (eV)
  ---------------------------------------------------
% ion-electron   TOTEN  =       -24.003147  see above
  kinetic energy EKIN   =         0.000401
  kin. lattice  EKIN_LAT=         0.000000  (temperature    0.78 K)
  nose potential ES     =         0.000000
  nose kinetic   EPS    =         0.000000
  ---------------------------------------------------
  total energy   ETOTAL =       -24.002746 eV

  maximum distance moved by ions :      0.19E-03

    WAVPRE:  cpu time    0.0388: real time    0.0390
    FEWALD:  cpu time    0.0004: real time    0.0004
    ORTHCH:  cpu time    0.0080: real time    0.0080
     LOOP+:  cpu time    6.4944: real time    6.5047


--------------------------------------- Iteration      2(   1)  ---------------------------------------


    POTLOK:  cpu time    0.1235: real time    0.1236
    SETDIJ:  cpu time    0.0020: real time    0.0020
     EDDAV:  cpu time    0.1561: real time    0.1561
       DOS:  cpu time    0.0002: real time    0.0002
    CHARGE:  cpu time    0.0154: real time    0.0154
    MIXING:  cpu time    0.0055: real time    0.0055
    --------------------------------------------
      LOOP:  cpu time    0.3027: real time    0.3028

 eigenvalue-minimisations  :    80
 total energy-change (2. order) :-0.3130749E-02  (-0.3370546E-03)
 number of electron       7.9999999 magnetization 
 augmentation part        0.1825707 magnetization 

 Broyden mixing:
  rms(total) = 0.26989E-02    rms(broyden)= 0.26966E-02
  rms(prec ) = 0.33368E-02
  weight for this iteration     100.00

 Free energy of the ion-electron system (eV)
  ---------------------------------------------------
  alpha Z        PSCENC =         0.23564453
  Ewald energy   TEWEN  =       127.61409707
  -Hartree energ DENC   =      -283.58399325
  -exchange      EXHF   =         0.00000000
  -V(xc)+E(xc)   XCENC  =        24.62930800
  PAW double counting   =       452.16249879     -452.94129930
  entropy T*S    EENTRO =        -0.00000000
  eigenvalues    EBANDS =       -89.16428755
  atomic energy  EATOM  =       197.04175453
  Solvation  Ediel_sol  =         0.00000000
  ---------------------------------------------------
  free energy    TOTEN  =       -24.00627718 eV

  energy without entropy =      -24.00627718  energy(sigma->0) =      -24.00627718


--------------------------------------------------------------------------------------------------------




--------------------------------------- Iteration      2(   2)  ---------------------------------------


    POTLOK:  cpu time    0.1282: real time    0.1283
    SETDIJ:  cpu time    0.0020: real time    0.0020
    EDDIAG:  cpu time    0.0332: real time    0.0332
  RMM-DIIS:  cpu time    0.1395: real time    0.1395
    ORTHCH:  cpu time    0.0015: real time    0.0015
       DOS:  cpu time    0.0002: real time    0.0002
    CHARGE:  cpu time    0.0155: real time    0.0155
    MIXING:  cpu time    0.0041: real time    0.0041
    --------------------------------------------
      LOOP:  cpu time    0.3242: real time    0.3243

 eigenvalue-minimisations  :    64
 total energy-change (2. order) : 0.1042610E-04  (-0.8435096E-05)
 number of electron       7.9999999 magnetization 
 augmentation part        0.1825440 magnetization 

 Broyden mixing:
  rms(total) = 0.14431E-02    rms(broyden)= 0.14425E-02
  rms(prec ) = 0.17157E-02
  weight for this iteration     100.00

 eigenvalues of (default mixing * dielectric matrix)
  average eigenvalue GAMMA=   1.7868
  1.7868

 Free energy of the ion-electron system (eV)
  ---------------------------------------------------
  alpha Z        PSCENC =         0.23564453
  Ewald energy   TEWEN  =       127.61409707
  -Hartree energ DENC   =      -283.61857221
  -exchange      EXHF   =         0.00000000
  -V(xc)+E(xc)   XCENC  =        24.63118462
  PAW double counting   =       452.68620805     -453.46539272
  entropy T*S    EENTRO =        -0.00000000
  eigenvalues    EBANDS =       -89.13119063
  atomic energy  EATOM  =       197.04175453
  Solvation  Ediel_sol  =         0.00000000
  ---------------------------------------------------
  free energy    TOTEN  =       -24.00626675 eV

  energy without entropy =      -24.00626675  energy(sigma->0) =      -24.00626675


--------------------------------------------------------------------------------------------------------




--------------------------------------- Iteration      2(   3)  ---------------------------------------


    POTLOK:  cpu time    0.1260: real time    0.1262
    SETDIJ:  cpu time    0.0021: real time    0.0021
    EDDIAG:  cpu time    0.0330: real time    0.0330
  RMM-DIIS:  cpu time    0.1386: real time    0.1393
    ORTHCH:  cpu time    0.0017: real time    0.0017
       DOS:  cpu time    0.0002: real time    0.0002
    CHARGE:  cpu time    0.0157: real time    0.0157
    MIXING:  cpu time    0.0043: real time    0.0043
    --------------------------------------------
      LOOP:  cpu time    0.3216: real time    0.3225

 eigenvalue-minimisations  :    64
 total energy-change (2. order) : 0.3211582E-06  (-0.2727197E-05)
 number of electron       7.9999999 magnetization 
 augmentation part        0.1825084 magnetization 

 Broyden mixing:
  rms(total) = 0.48592E-03    rms(broyden)= 0.48545E-03
  rms(prec ) = 0.58754E-03
  weight for this iteration     100.00

 eigenvalues of (default mixing * dielectric matrix)
  average eigenvalue GAMMA=   1.4844
  1.1815  1.7873

 Free energy of the ion-electron system (eV)
  ---------------------------------------------------
  alpha Z        PSCENC =         0.23564453
  Ewald energy   TEWEN  =       127.61409707
  -Hartree energ DENC   =      -283.64081660
  -exchange      EXHF   =         0.00000000
  -V(xc)+E(xc)   XCENC  =        24.63243041
  PAW double counting   =       453.06520732     -453.84466592
  entropy T*S    EENTRO =        -0.00000000
  eigenvalues    EBANDS =       -89.10991777
  atomic energy  EATOM  =       197.04175453
  Solvation  Ediel_sol  =         0.00000000
  ---------------------------------------------------
  free energy    TOTEN  =       -24.00626643 eV

  energy without entropy =      -24.00626643  energy(sigma->0) =      -24.00626643


--------------------------------------------------------------------------------------------------------




--------------------------------------- Iteration      2(   4)  ---------------------------------------


    POTLOK:  cpu time    0.1268: real time    0.1270
    SETDIJ:  cpu time    0.0021: real time    0.0021
    EDDIAG:  cpu time    0.0332: real time    0.0332
  RMM-DIIS:  cpu time    0.1132: real time    0.1132
    ORTHCH:  cpu time    0.0018: real time    0.0018
       DOS:  cpu time    0.0002: real time    0.0002
    --------------------------------------------
      LOOP:  cpu time    0.2773: real time    0.2775

 eigenvalue-minimisations  :    48
 total energy-change (2. order) : 0.1945859E-06  (-0.7943165E-07)
 number of electron       7.9999999 magnetization 
 augmentation part        0.1825084 magnetization 

 Free energy of the ion-electron system (eV)
  ---------------------------------------------------
  alpha Z        PSCENC =         0.23564453
  Ewald energy   TEWEN  =       127.61409707
  -Hartree energ DENC   =      -283.63457953
  -exchange      EXHF   =         0.00000000
  -V(xc)+E(xc)   XCENC  =        24.63218259
  PAW double counting   =       453.10017686     -453.87955310
  entropy T*S    EENTRO =        -0.00000000
  eigenvalues    EBANDS =       -89.11598919
  atomic energy  EATOM  =       197.04175453
  Solvation  Ediel_sol  =         0.00000000
  ---------------------------------------------------
  free energy    TOTEN  =       -24.00626624 eV

  energy without entropy =      -24.00626624  energy(sigma->0) =      -24.00626624


--------------------------------------------------------------------------------------------------------




 average (electrostatic) potential at core
  the test charge radii are     0.5201  0.6991
  (the norm of the test charge is              1.0000)
       1 -41.5000       2 -41.3466       3 -41.3578       4 -41.5433       5 -58.0270
 
 
 
 E-fermi :  -8.2055     XC(G=0):  -0.6976     alpha+bet : -0.2049


 k-point     1 :       0.2500    0.2500    0.2500
  band No.  band energies     occupation 
      1     -16.8120      2.00000
      2      -9.4016      2.00000
      3      -9.1955      2.00000
      4      -9.1489      2.00000
      5      -0.3342      0.00000
      6       0.5302      0.00000
      7       0.6346      0.00000
      8       0.6874      0.00000

 k-point     2 :      -0.2500    0.2500    0.2500
  band No.  band energies     occupation 
      1     -16.8120      2.00000
      2      -9.4017      2.00000
      3      -9.1954      2.00000
      4      -9.1490      2.00000
      5      -0.3368      0.00000
      6       0.5344      0.00000
      7       0.6500      0.00000
      8       0.6829      0.00000

 k-point     3 :       0.2500   -0.2500    0.2500
  band No.  band energies     occupation 
      1     -16.8120      2.00000
      2      -9.4017      2.00000
      3      -9.1955      2.00000
      4      -9.1489      2.00000
      5      -0.3377      0.00000
      6       0.5353      0.00000
      7       0.6539      0.00000
      8       0.6859      0.00000

 k-point     4 :      -0.2500   -0.2500    0.2500
  band No.  band energies     occupation 
      1     -16.8119      2.00000
      2      -9.4017      2.00000
      3      -9.1954      2.00000
      4      -9.1489      2.00000
      5      -0.3335      0.00000
      6       0.5293      0.00000
      7       0.6323      0.00000
      8       0.6843      0.00000


--------------------------------------------------------------------------------------------------------


 soft charge-density along one line, spin component           1
         0         1         2         3         4         5         6         7         8         9
 total charge-density along one line
 
 pseudopotential strength for first ion, spin component:           1
 -2.341  -4.034  -0.001  -0.001   0.001
 -4.034  -6.865  -0.003  -0.004   0.002
 -0.001  -0.003  -0.337   0.002  -0.001
 -0.001  -0.004   0.002  -0.336  -0.001
  0.001   0.002  -0.001  -0.001  -0.338
 total augmentation occupancy for first ion, spin component:           1
  3.543  -0.638   0.244   0.323  -0.143
 -0.638   0.129  -0.045  -0.060   0.026
  0.244  -0.045   0.023   0.018  -0.008
  0.323  -0.060   0.018   0.034  -0.011
 -0.143   0.026  -0.008  -0.011   0.014


------------------------ aborting loop because EDIFF is reached ----------------------------------------


    CHARGE:  cpu time    0.0157: real time    0.0157
    FORLOC:  cpu time    0.0123: real time    0.0123
    FORNL :  cpu time    0.0200: real time    0.0200
    STRESS:  cpu time    0.1473: real time    0.1546
    FORCOR:  cpu time    0.1257: real time    0.1259
    FORHAR:  cpu time    0.0420: real time    0.0420
    MIXING:  cpu time    0.0056: real time    0.0056
    OFIELD:  cpu time    0.0000: real time    0.0000

  FORCE on cell =-STRESS in cart. coord.  units (eV):
  Direction    XX          YY          ZZ          XY          YZ          ZX
  --------------------------------------------------------------------------------------
  Alpha Z     0.23564     0.23564     0.23564
  Ewald      41.12191    42.32411    44.16804    -2.50907    -0.11735     0.63506
  Hartree    93.70598    92.80168    97.12272    -0.73783     0.01305     0.22492
  E(xc)     -27.08806   -27.07796   -27.11043    -0.00957     0.00030     0.00303
  Local    -193.99846  -193.66618  -200.23661     2.74957     0.04713    -0.75852
  n-local   -15.59105   -15.63135   -15.72838     0.02217     0.00837     0.00087
  augment     0.12368     0.11838     0.11944     0.00392     0.00060    -0.00072
  Kinetic   100.17282    99.72965   101.40159     0.44025    -0.01622    -0.14751
  Fock        0.00000     0.00000     0.00000     0.00000     0.00000     0.00000
  -------------------------------------------------------------------------------------
  Total      -1.31754    -1.16602    -0.02799    -0.04057    -0.06412    -0.04287
  in kB      -2.05337    -1.81722    -0.04362    -0.06322    -0.09992    -0.06681
  external pressure =       -1.30 kB  Pullay stress =        0.00 kB

  kinetic pressure (ideal gas correction) =      0.00 kB
  total pressure  =     -1.30 kB
  Total+kin.    -2.051      -1.815      -0.043      -0.063      -0.100      -0.067

 VOLUME and BASIS-vectors are now :
 -----------------------------------------------------------------------------
  energy-cutoff  :      400.00
  volume of cell :     1028.03
      direct lattice vectors                 reciprocal lattice vectors
    10.183751989  0.000000000  0.000000000     0.098195636  0.001819835 -0.000428885
    -0.190835482 10.297206090  0.000000000     0.000000000  0.097113721  0.000014256
     0.042844961 -0.001439168  9.803487914     0.000000000  0.000000000  0.102004512

  length of vectors
    10.183751989 10.298974291  9.803581643     0.098213434  0.097113722  0.102004512


 FORCES acting on ions
    electron-ion (+dipol)            ewald-force                    non-local-force                 convergence-correction
 -----------------------------------------------------------------------------------------------
   -.175E+02 0.297E+02 0.398E+02   0.192E+02 -.327E+02 -.440E+02   -.184E+01 0.313E+01 0.411E+01   -.389E-03 0.613E-03 0.431E-03
   0.512E+02 -.605E+01 0.319E+01   -.556E+02 0.650E+01 -.345E+01   0.512E+01 -.620E+00 0.320E+00   0.218E-03 0.319E-03 -.674E-04
   -.221E+02 -.468E+02 0.105E+01   0.241E+02 0.509E+02 -.116E+01   -.221E+01 -.470E+01 0.975E-01   -.436E-03 -.554E-04 -.793E-04
   -.130E+02 0.252E+02 -.446E+02   0.143E+02 -.278E+02 0.496E+02   -.140E+01 0.268E+01 -.468E+01   -.358E-03 0.630E-03 -.765E-03
   0.184E+01 -.267E+01 0.826E+00   -.213E+01 0.311E+01 -.958E+00   -.618E-01 0.137E+00 -.402E-01   -.460E-03 0.636E-03 -.144E-03
 -----------------------------------------------------------------------------------------------
   0.394E+00 -.632E+00 0.193E+00   0.355E-14 0.355E-14 0.000E+00   -.392E+00 0.629E+00 -.192E+00   -.143E-02 0.214E-02 -.625E-03
 
 
 POSITION                                       TOTAL-FORCE (eV/Angst)
 -----------------------------------------------------------------------------------
      5.41848      4.18968      3.53460        -0.079714      0.168157     -0.134462
      3.94230      4.93986      4.29478         0.713922     -0.167846      0.053687
      5.53284      5.81995      4.34135        -0.218631     -0.632242     -0.016089
[...]
  entropy T*S    EENTRO =        -0.00000000
  eigenvalues    EBANDS =       -89.86338687
  atomic energy  EATOM  =       197.04175453
  Solvation  Ediel_sol  =         0.00000000
  ---------------------------------------------------
  free energy    TOTEN  =       -24.01263769 eV

  energy without entropy =      -24.01263769  energy(sigma->0) =      -24.01263769


--------------------------------------------------------------------------------------------------------




--------------------------------------- Iteration     10(   4)  ---------------------------------------


    POTLOK:  cpu time    0.1251: real time    0.1253
    SETDIJ:  cpu time    0.0022: real time    0.0022
    EDDIAG:  cpu time    0.0325: real time    0.0325
  RMM-DIIS:  cpu time    0.1126: real time    0.1127
    ORTHCH:  cpu time    0.0017: real time    0.0017
       DOS:  cpu time    0.0002: real time    0.0002
    CHARGE:  cpu time    0.0157: real time    0.0157
    MIXING:  cpu time    0.0043: real time    0.0043
    --------------------------------------------
      LOOP:  cpu time    0.2943: real time    0.2946

 eigenvalue-minimisations  :    48
 total energy-change (2. order) :-0.2983171E-05  (-0.9453262E-08)
 number of electron       8.0000000 magnetization 
 augmentation part        0.1878648 magnetization 

 Broyden mixing:
  rms(total) = 0.48973E-04    rms(broyden)= 0.48964E-04
  rms(prec ) = 0.61595E-04
  weight for this iteration     100.00

 eigenvalues of (default mixing * dielectric matrix)
  average eigenvalue GAMMA=   1.5087
  2.1757  0.9561  1.3944

 Free energy of the ion-electron system (eV)
  ---------------------------------------------------
  alpha Z        PSCENC =         0.23564453
  Ewald energy   TEWEN  =       132.13382919
  -Hartree energ DENC   =      -287.60859726
  -exchange      EXHF   =         0.00000000
  -V(xc)+E(xc)   XCENC  =        24.84251671
  PAW double counting   =       480.39476723     -481.19001601
  entropy T*S    EENTRO =        -0.00000000
  eigenvalues    EBANDS =       -89.86253959
  atomic energy  EATOM  =       197.04175453
  Solvation  Ediel_sol  =         0.00000000
  ---------------------------------------------------
  free energy    TOTEN  =       -24.01264067 eV

  energy without entropy =      -24.01264067  energy(sigma->0) =      -24.01264067


--------------------------------------------------------------------------------------------------------




--------------------------------------- Iteration     10(   5)  ---------------------------------------


    POTLOK:  cpu time    0.1257: real time    0.1259
    SETDIJ:  cpu time    0.0020: real time    0.0020
    EDDIAG:  cpu time    0.0324: real time    0.0324
  RMM-DIIS:  cpu time    0.1072: real time    0.1072
    ORTHCH:  cpu time    0.0017: real time    0.0017
       DOS:  cpu time    0.0002: real time    0.0002
    CHARGE:  cpu time    0.0156: real time    0.0156
    MIXING:  cpu time    0.0043: real time    0.0043
    --------------------------------------------
      LOOP:  cpu time    0.2892: real time    0.2894

 eigenvalue-minimisations  :    38
 total energy-change (2. order) :-0.2060048E-05  (-0.1425208E-08)
 number of electron       8.0000000 magnetization 
 augmentation part        0.1878646 magnetization 

 Broyden mixing:
  rms(total) = 0.71043E-05    rms(broyden)= 0.70933E-05
  rms(prec ) = 0.25534E-04
  weight for this iteration     100.00

 eigenvalues of (default mixing * dielectric matrix)
  average eigenvalue GAMMA=   1.5430
  2.5916  1.3033  1.3033  0.9738

 Free energy of the ion-electron system (eV)
  ---------------------------------------------------
  alpha Z        PSCENC =         0.23564453
  Ewald energy   TEWEN  =       132.13382919
  -Hartree energ DENC   =      -287.60912643
  -exchange      EXHF   =         0.00000000
  -V(xc)+E(xc)   XCENC  =        24.84255411
  PAW double counting   =       480.36329663     -481.15854673
  entropy T*S    EENTRO =        -0.00000000
  eigenvalues    EBANDS =       -89.86204858
  atomic energy  EATOM  =       197.04175453
  Solvation  Ediel_sol  =         0.00000000
  ---------------------------------------------------
  free energy    TOTEN  =       -24.01264273 eV

  energy without entropy =      -24.01264273  energy(sigma->0) =      -24.01264273


--------------------------------------------------------------------------------------------------------




--------------------------------------- Iteration     10(   6)  ---------------------------------------


    POTLOK:  cpu time    0.1265: real time    0.1271
    SETDIJ:  cpu time    0.0021: real time    0.0021
    EDDIAG:  cpu time    0.0326: real time    0.0326
  RMM-DIIS:  cpu time    0.1095: real time    0.1095
    ORTHCH:  cpu time    0.0020: real time    0.0020
       DOS:  cpu time    0.0002: real time    0.0002
    CHARGE:  cpu time    0.0155: real time    0.0155
    MIXING:  cpu time    0.0046: real time    0.0046
    --------------------------------------------
      LOOP:  cpu time    0.2930: real time    0.2936

 eigenvalue-minimisations  :    42
 total energy-change (2. order) :-0.1661449E-05  (-0.8355467E-08)
 number of electron       8.0000000 magnetization 
 augmentation part        0.1878637 magnetization 

 Broyden mixing:
  rms(total) = 0.14779E-04    rms(broyden)= 0.14775E-04
  rms(prec ) = 0.23110E-04
  weight for this iteration     100.00

 eigenvalues of (default mixing * dielectric matrix)
  average eigenvalue GAMMA=   1.7947
  3.4803  2.4451  1.2596  0.9733  0.8152

 Free energy of the ion-electron system (eV)
  ---------------------------------------------------
  alpha Z        PSCENC =         0.23564453
  Ewald energy   TEWEN  =       132.13382919
  -Hartree energ DENC   =      -287.60955864
  -exchange      EXHF   =         0.00000000
  -V(xc)+E(xc)   XCENC  =        24.84257241
  PAW double counting   =       480.35817751     -481.15342905
  entropy T*S    EENTRO =        -0.00000000
  eigenvalues    EBANDS =       -89.86163487
  atomic energy  EATOM  =       197.04175453
  Solvation  Ediel_sol  =         0.00000000
  ---------------------------------------------------
  free energy    TOTEN  =       -24.01264439 eV

  energy without entropy =      -24.01264439  energy(sigma->0) =      -24.01264439


--------------------------------------------------------------------------------------------------------




--------------------------------------- Iteration     10(   7)  ---------------------------------------


    POTLOK:  cpu time    0.1269: real time    0.1271
    SETDIJ:  cpu time    0.0021: real time    0.0021
    EDDIAG:  cpu time    0.0329: real time    0.0329
  RMM-DIIS:  cpu time    0.1012: real time    0.1013
    ORTHCH:  cpu time    0.0017: real time    0.0017
       DOS:  cpu time    0.0002: real time    0.0002
    CHARGE:  cpu time    0.0156: real time    0.0156
    MIXING:  cpu time    0.0081: real time    0.0081
    --------------------------------------------
      LOOP:  cpu time    0.2887: real time    0.2889

 eigenvalue-minimisations  :    34
 total energy-change (2. order) :-0.1102916E-05  (-0.1872787E-08)
 number of electron       8.0000000 magnetization 
 augmentation part        0.1878635 magnetization 

 Broyden mixing:
  rms(total) = 0.94332E-05    rms(broyden)= 0.94322E-05
  rms(prec ) = 0.12113E-04
  weight for this iteration     100.00

 eigenvalues of (default mixing * dielectric matrix)
  average eigenvalue GAMMA=   1.9638
  4.7653  2.6119  1.2904  1.2904  0.8445  0.9805

 Free energy of the ion-electron system (eV)
  ---------------------------------------------------
  alpha Z        PSCENC =         0.23564453
  Ewald energy   TEWEN  =       132.13382919
  -Hartree energ DENC   =      -287.60957092
  -exchange      EXHF   =         0.00000000
  -V(xc)+E(xc)   XCENC  =        24.84255757
  PAW double counting   =       480.36925112     -481.16449898
  entropy T*S    EENTRO =        -0.00000000
  eigenvalues    EBANDS =       -89.86161255
  atomic energy  EATOM  =       197.04175453
  Solvation  Ediel_sol  =         0.00000000
  ---------------------------------------------------
  free energy    TOTEN  =       -24.01264550 eV

  energy without entropy =      -24.01264550  energy(sigma->0) =      -24.01264550


--------------------------------------------------------------------------------------------------------




--------------------------------------- Iteration     10(   8)  ---------------------------------------


    POTLOK:  cpu time    0.1246: real time    0.1248
    SETDIJ:  cpu time    0.0020: real time    0.0020
    EDDIAG:  cpu time    0.0325: real time    0.0325
  RMM-DIIS:  cpu time    0.0989: real time    0.0989
    ORTHCH:  cpu time    0.0014: real time    0.0014
       DOS:  cpu time    0.0002: real time    0.0002
    --------------------------------------------
      LOOP:  cpu time    0.2595: real time    0.2597

 eigenvalue-minimisations  :    32
 total energy-change (2. order) :-0.5582649E-07  ( 0.0000000E+00)
 number of electron       8.0000000 magnetization 
 augmentation part        0.1878635 magnetization 

 Free energy of the ion-electron system (eV)
  ---------------------------------------------------
  alpha Z        PSCENC =         0.23564453
  Ewald energy   TEWEN  =       132.13382919
  -Hartree energ DENC   =      -287.60932447
  -exchange      EXHF   =         0.00000000
  -V(xc)+E(xc)   XCENC  =        24.84254358
  PAW double counting   =       480.36630325     -481.16154841
  entropy T*S    EENTRO =        -0.00000000
  eigenvalues    EBANDS =       -89.86184775
  atomic energy  EATOM  =       197.04175453
  Solvation  Ediel_sol  =         0.00000000
  ---------------------------------------------------
  free energy    TOTEN  =       -24.01264555 eV

  energy without entropy =      -24.01264555  energy(sigma->0) =      -24.01264555


--------------------------------------------------------------------------------------------------------




 average (electrostatic) potential at core
  the test charge radii are     0.5201  0.6991
  (the norm of the test charge is              1.0000)
       1 -41.4754       2 -41.6738       3 -41.6542       4 -41.4228       5 -57.9099
 
 
 
 E-fermi :  -8.2708     XC(G=0):  -0.6771     alpha+bet : -0.2049


 k-point     1 :       0.2500    0.2500    0.2500
  band No.  band energies     occupation 
      1     -16.9563      2.00000
      2      -9.3956      2.00000
      3      -9.3582      2.00000
      4      -9.2209      2.00000
      5      -0.3031      0.00000
      6       0.5541      0.00000
      7       0.6539      0.00000
      8       0.7033      0.00000

 k-point     2 :      -0.2500    0.2500    0.2500
  band No.  band energies     occupation 
      1     -16.9563      2.00000
      2      -9.3956      2.00000
      3      -9.3583      2.00000
      4      -9.2208      2.00000
      5      -0.3053      0.00000
      6       0.5550      0.00000
      7       0.6696      0.00000
      8       0.6993      0.00000

 k-point     3 :       0.2500   -0.2500    0.2500
  band No.  band energies     occupation 
      1     -16.9563      2.00000
      2      -9.3956      2.00000
      3      -9.3583      2.00000
      4      -9.2208      2.00000
      5      -0.3061      0.00000
      6       0.5553      0.00000
      7       0.6735      0.00000
      8       0.7022      0.00000

 k-point     4 :      -0.2500   -0.2500    0.2500
  band No.  band energies     occupation 
      1     -16.9563      2.00000
      2      -9.3955      2.00000
      3      -9.3582      2.00000
      4      -9.2208      2.00000
      5      -0.3022      0.00000
      6       0.5520      0.00000
      7       0.6522      0.00000
      8       0.7006      0.00000


--------------------------------------------------------------------------------------------------------


 soft charge-density along one line, spin component           1
         0         1         2         3         4         5         6         7         8         9
 total charge-density along one line
 
 pseudopotential strength for first ion, spin component:           1
 -2.341  -4.033  -0.001  -0.001   0.001
 -4.033  -6.864  -0.003  -0.004   0.002
 -0.001  -0.003  -0.337   0.002  -0.001
 -0.001  -0.004   0.002  -0.336  -0.001
  0.001   0.002  -0.001  -0.001  -0.338
 total augmentation occupancy for first ion, spin component:           1
  3.544  -0.638   0.238   0.328  -0.141
 -0.638   0.129  -0.044  -0.061   0.026
  0.238  -0.044   0.022   0.018  -0.008
  0.328  -0.061   0.018   0.034  -0.011
 -0.141   0.026  -0.008  -0.011   0.014


------------------------ aborting loop because EDIFF is reached ----------------------------------------


    CHARGE:  cpu time    0.0156: real time    0.0156
    FORLOC:  cpu time    0.0123: real time    0.0123
    FORNL :  cpu time    0.0200: real time    0.0200
    STRESS:  cpu time    0.1475: real time    0.1475
    FORCOR:  cpu time    0.1267: real time    0.1270
    FORHAR:  cpu time    0.0389: real time    0.0389
    MIXING:  cpu time    0.0045: real time    0.0045
    OFIELD:  cpu time    0.0000: real time    0.0000

  FORCE on cell =-STRESS in cart. coord.  units (eV):
  Direction    XX          YY          ZZ          XY          YZ          ZX
  --------------------------------------------------------------------------------------
  Alpha Z     0.23564     0.23564     0.23564
  Ewald      43.86640    42.19001    46.07738    -0.27914     0.12578     0.19186
  Hartree    94.65105    93.47408    99.48414    -0.43599    -0.01932     0.10820
  E(xc)     -27.32171   -27.31744   -27.32010    -0.00347    -0.00033     0.00069
  Local    -196.69600  -194.10156  -204.83561     0.84385    -0.04572    -0.28041
  n-local   -16.17412   -16.13618   -16.06554    -0.02446    -0.00694     0.00089
  augment     0.10619     0.10946     0.11764    -0.00167    -0.00059    -0.00020
  Kinetic   101.89341   101.68580   101.81383     0.17123     0.01658    -0.03412
  Fock        0.00000     0.00000     0.00000     0.00000     0.00000     0.00000
  -------------------------------------------------------------------------------------
  Total       0.56086     0.13981    -0.49263     0.27035     0.06946    -0.01308
  in kB       0.87409     0.21789    -0.76776     0.42134     0.10825    -0.02038
  external pressure =        0.11 kB  Pullay stress =        0.00 kB

  kinetic pressure (ideal gas correction) =      0.01 kB
  total pressure  =      0.12 kB
  Total+kin.     0.886       0.237      -0.761       0.413       0.108      -0.020

 VOLUME and BASIS-vectors are now :
 -----------------------------------------------------------------------------
  energy-cutoff  :      400.00
  volume of cell :     1028.03
      direct lattice vectors                 reciprocal lattice vectors
    10.183751989  0.000000000  0.000000000     0.098195636  0.001819835 -0.000428885
    -0.190835482 10.297206090  0.000000000     0.000000000  0.097113721  0.000014256
     0.042844961 -0.001439168  9.803487914     0.000000000  0.000000000  0.102004512

  length of vectors
    10.183751989 10.298974291  9.803581643     0.098213434  0.097113722  0.102004512


 FORCES acting on ions
    electron-ion (+dipol)            ewald-force                    non-local-force                 convergence-correction
 -----------------------------------------------------------------------------------------------
   -.173E+02 0.293E+02 0.406E+02   0.191E+02 -.323E+02 -.448E+02   -.180E+01 0.304E+01 0.419E+01   -.772E-05 0.695E-05 0.231E-05
   0.536E+02 -.578E+01 0.324E+01   -.602E+02 0.646E+01 -.364E+01   0.580E+01 -.624E+00 0.351E+00   0.387E-05 0.327E-05 0.193E-05
   -.235E+02 -.485E+02 0.118E+01   0.264E+02 0.544E+02 -.133E+01   -.254E+01 -.522E+01 0.124E+00   -.892E-05 -.992E-06 0.102E-05
   -.125E+02 0.246E+02 -.449E+02   0.138E+02 -.270E+02 0.493E+02   -.129E+01 0.252E+01 -.458E+01   -.921E-05 0.840E-05 -.549E-05
   -.645E+00 0.114E+01 -.332E+00   0.893E+00 -.153E+01 0.443E+00   0.282E+00 -.429E+00 0.130E+00   -.274E-04 0.127E-04 0.176E-04
 -----------------------------------------------------------------------------------------------
   -.457E+00 0.719E+00 -.213E+00   -.178E-14 0.000E+00 -.711E-14   0.457E+00 -.719E+00 0.213E+00   -.493E-04 0.303E-04 0.174E-04
 
 
 POSITION                                       TOTAL-FORCE (eV/Angst)
 -----------------------------------------------------------------------------------
      5.41106      4.20529      3.52257        -0.012154      0.026447     -0.030941
      3.98574      4.92660      4.29845        -0.775345      0.056433     -0.042460
      5.52186      5.78007      4.33950         0.328685      0.623900     -0.020477
      5.31447      4.29799      5.30348        -0.070113      0.117010     -0.146626
      5.05170      4.81236      4.36289         0.529315     -0.823805      0.240859
 -----------------------------------------------------------------------------------
    total drift:                                0.000388     -0.000016      0.000356


--------------------------------------------------------------------------------------------------------



  FREE ENERGIE OF THE ION-ELECTRON SYSTEM (eV)
  ---------------------------------------------------
  free  energy   TOTEN  =       -24.01264555 eV

  energy  without entropy=      -24.01264555  energy(sigma->0) =      -24.01264555
 
 d Force =-0.4710740E-02[-0.536E-02,-0.406E-02]  d Energy =-0.4705545E-02-0.520E-05
 d Force =-0.4328127E+00[-0.434E+00,-0.432E+00]  d Ewald  =-0.4328112E+00-0.152E-05


--------------------------------------------------------------------------------------------------------


    POTLOK:  cpu time    0.1323: real time    0.1323


--------------------------------------------------------------------------------------------------------


           RANDOM_SEED =         172315642               30                0
   IONSTEP:  cpu time    0.0002: real time    0.0002

  ENERGY OF THE ELECTRON-ION-THERMOSTAT SYSTEM (eV)
  ---------------------------------------------------
% ion-electron   TOTEN  =       -24.012646  see above
  kinetic energy EKIN   =         0.009798
  kin. lattice  EKIN_LAT=         0.000000  (temperature   18.95 K)
  nose potential ES     =         0.000000
  nose kinetic   EPS    =         0.000000
  ---------------------------------------------------
  total energy   ETOTAL =       -24.002848 eV

  maximum distance moved by ions :      0.38E-03


 mean value of Nose-termostat <S>:     1.000 mean value of <T> :    26.312
 mean temperature <T/S>/<1/S>  :    26.312

    WAVPRE:  cpu time    0.0474: real time    0.0478
    FEWALD:  cpu time    0.0003: real time    0.0003
    ORTHCH:  cpu time    0.0080: real time    0.0080
 Prediction of Wavefunctions ALPHA= 2.125 BETA=-1.153
    POTLOK:  cpu time    0.1213: real time    0.1213
    EDDIAG:  cpu time    0.0333: real time    0.0340
     LOOP+:  cpu time    3.0740: real time    3.0784
    4ORBIT:  cpu time    0.0000: real time    0.0000

 total amount of memory used by VASP MPI-rank0    54812. kBytes
=======================================================================

   base      :      30000. kBytes
   nonl-proj :       2770. kBytes
   fftplans  :       7855. kBytes
   grid      :      12378. kBytes
   one-center:          6. kBytes
   wavefun   :       1803. kBytes
 
  
  
 General timing and accounting informations for this job:
 ========================================================
  
                  Total CPU time used (sec):       27.651
                            User time (sec):       25.613
                          System time (sec):        2.038
                         Elapsed time (sec):       27.952
  
                   Maximum memory used (kb):      177428.
                   Average memory used (kb):           0.
  
                          Minor page faults:       262396
                          Major page faults:            0
                 Voluntary context switches:           83
