 vasp.5.4.4.18Apr17-6-g9f103f2a35 (build Jul 09 2021 13:05:15) complex          
  
 executed on             LinuxIFC date 2021.11.04  19:02:09
 running on   16 total cores
 distrk:  each k-point on   16 cores,    1 groups
 distr:  one band on NCORES_PER_BAND=   4 cores,    4 groups


--------------------------------------------------------------------------------------------------------


 INCAR:
 POTCAR:    PAW_PBE H 15Jun2001                   
 POTCAR:    PAW_PBE C 08Apr2002                   
 POTCAR:    PAW_PBE H 15Jun2001                   
   VRHFIN =H: ultrasoft test                                                    
   LEXCH  = PE                                                                  
   EATOM  =    12.4884 eV,    0.9179 Ry                                         
                                                                                
   TITEL  = PAW_PBE H 15Jun2001                                                 
   LULTRA =        F    use ultrasoft PP ?                                      
   IUNSCR =        0    unscreen: 0-lin 1-nonlin 2-no                           
   RPACOR =    0.000    partial core radius                                     
   POMASS =    1.000; ZVAL   =    1.000    mass and valenz                      
   RCORE  =    1.100    outmost cutoff radius                                   
   RWIGS  =    0.700; RWIGS  =    0.370    wigner-seitz radius (au A)           
   ENMAX  =  250.000; ENMIN  =  200.000 eV                                      
   RCLOC  =    0.701    cutoff for local pot                                    
   LCOR   =        T    correct aug charges                                     
   LPAW   =        T    paw PP                                                  
   EAUG   =  400.000                                                            
   RMAX   =    1.123    core radius for proj-oper                               
   RAUG   =    1.200    factor for augmentation sphere                          
   RDEP   =    1.112    radius for radial grids                                 
   RDEPT  =    0.926    core radius for aug-charge                              
                                                                                
   Atomic configuration                                                         
    2 entries                                                                   
     n  l   j            E        occ.                                          
     1  0  0.50        -6.4927   1.0000                                         
     2  1  0.50        -3.4015   0.0000                                         
   Description                                                                  
     l       E           TYP  RCUT    TYP  RCUT                                 
     0     -6.4927494     23  1.100                                             
     0      6.8029130     23  1.100                                             
     1     -4.0817478     23  1.100                                             
  local pseudopotential read in
  atomic valenz-charges read in
  non local Contribution for L=           0  read in
    real space projection operators read in
  non local Contribution for L=           0  read in
    real space projection operators read in
  non local Contribution for L=           1  read in
    real space projection operators read in
    PAW grid and wavefunctions read in
 
   number of l-projection  operators is LMAX  =           3
   number of lm-projection operators is LMMAX =           5
 
 POTCAR:    PAW_PBE C 08Apr2002                   
   VRHFIN =C: s2p2                                                              
   LEXCH  = PE                                                                  
   EATOM  =   147.1560 eV,   10.8157 Ry                                         
                                                                                
   TITEL  = PAW_PBE C 08Apr2002                                                 
   LULTRA =        F    use ultrasoft PP ?                                      
   IUNSCR =        1    unscreen: 0-lin 1-nonlin 2-no                           
   RPACOR =    1.200    partial core radius                                     
   POMASS =   12.011; ZVAL   =    4.000    mass and valenz                      
   RCORE  =    1.500    outmost cutoff radius                                   
   RWIGS  =    1.630; RWIGS  =    0.863    wigner-seitz radius (au A)           
   ENMAX  =  400.000; ENMIN  =  300.000 eV                                      
   ICORE  =        2    local potential                                         
   LCOR   =        T    correct aug charges                                     
   LPAW   =        T    paw PP                                                  
   EAUG   =  644.873                                                            
   DEXC   =    0.000                                                            
   RMAX   =    1.529    core radius for proj-oper                               
   RAUG   =    1.300    factor for augmentation sphere                          
   RDEP   =    1.501    radius for radial grids                                 
   RDEPT  =    1.300    core radius for aug-charge                              
                                                                                
   Atomic configuration                                                         
    4 entries                                                                   
     n  l   j            E        occ.                                          
     1  0  0.50      -273.3789   2.0000                                         
     2  0  0.50       -13.7508   2.0000                                         
     2  1  0.50        -5.2854   2.0000                                         
     3  2  1.50        -5.4423   0.0000                                         
   Description                                                                  
     l       E           TYP  RCUT    TYP  RCUT                                 
     0    -13.7508458     23  1.200                                             
     0     -8.2022199     23  1.200                                             
     1     -5.2854383     23  1.500                                             
     1     34.0145650     23  1.500                                             
     2     -5.4423304      7  1.500                                             
  local pseudopotential read in
  partial core-charges read in
  partial kinetic energy density read in
  atomic valenz-charges read in
  non local Contribution for L=           0  read in
    real space projection operators read in
  non local Contribution for L=           0  read in
    real space projection operators read in
  non local Contribution for L=           1  read in
    real space projection operators read in
  non local Contribution for L=           1  read in
    real space projection operators read in
    PAW grid and wavefunctions read in
 
   number of l-projection  operators is LMAX  =           4
   number of lm-projection operators is LMMAX =           8
 
  PAW_PBE H 15Jun2001                   :
 energy of atom  1       EATOM=  -12.4884
 kinetic energy error for atom=    0.0098 (will be added to EATOM!!)
  PAW_PBE C 08Apr2002                   :
 energy of atom  2       EATOM= -147.1560
 kinetic energy error for atom=    0.0288 (will be added to EATOM!!)
 
 
 POSCAR:  H  C                                   
  positions in cartesian coordinates
  No initial velocities read in
 exchange correlation table for  LEXCH =        8
   RHO(1)=    0.500       N(1)  =     2000
   RHO(2)=  100.500       N(2)  =     4000
 


--------------------------------------------------------------------------------------------------------


 ion  position               nearest neighbor table
   1  0.538  0.407  0.361-   5 1.11
   2  0.395  0.480  0.439-   5 1.10
   3  0.552  0.565  0.443-   5 1.09
   4  0.529  0.417  0.539-   5 1.10
   5  0.503  0.467  0.445-   3 1.09   2 1.10   4 1.10   1 1.11
 

IMPORTANT INFORMATION: All symmetrisations will be switched off!
NOSYMM: (Re-)initialisation of all symmetry stuff for point group C_1.

 
 

Automatic generation of k-mesh.
 generate k-points for:    2    2    2
Space group operators:
 irot       det(A)        alpha          n_x          n_y          n_z        tau_x        tau_y        tau_z
    1     1.000000     0.000000     1.000000     0.000000     0.000000     0.000000     0.000000     0.000000
 
 Subroutine IBZKPT returns following result:
 ===========================================
 
 Found      4 irreducible k-points:
 
 Following reciprocal coordinates:
            Coordinates               Weight
  0.250000  0.250000  0.250000      2.000000
 -0.250000  0.250000  0.250000      2.000000
  0.250000 -0.250000  0.250000      2.000000
 -0.250000 -0.250000  0.250000      2.000000
 
 Following cartesian coordinates:
            Coordinates               Weight
  0.024941  0.025249  0.023131      2.000000
 -0.024941  0.025302  0.024486      2.000000
  0.024941 -0.025302  0.024499      2.000000
 -0.024941 -0.025249  0.025854      2.000000
 


--------------------------------------------------------------------------------------------------------




 Dimension of arrays:
   k-points           NKPTS =      4   k-points in BZ     NKDIM =      4   number of bands    NBANDS=      8
   number of dos      NEDOS =    301   number of ions     NIONS =      5
   non local maximal  LDIM  =      4   non local SUM 2l+1 LMDIM =      8
   total plane-waves  NPLWV = 343000
   max r-space proj   IRMAX =      1   max aug-charges    IRDMAX=   4199
   dimension x,y,z NGX =    70 NGY =   70 NGZ =   70
   dimension x,y,z NGXF=   140 NGYF=  140 NGZF=  140
   support grid    NGXF=   140 NGYF=  140 NGZF=  140
   ions per type =               4   1
   NGX,Y,Z   is equivalent  to a cutoff of  11.61, 11.77, 11.39 a.u.
   NGXF,Y,Z  is equivalent  to a cutoff of  23.22, 23.53, 22.79 a.u.

 SYSTEM =  unknown system                          
 POSCAR =   H  C                                   

 Startparameter for this run:
   NWRITE =      2    write-flag & timer
   PREC   = a         normal or accurate (medium, high low for compatibility)
   ISTART =      0    job   : 0-new  1-cont  2-samecut
   ICHARG =      2    charge: 1-file 2-atom 10-const
   ISPIN  =      1    spin polarized calculation?
   LNONCOLLINEAR =      F non collinear calculations
   LSORBIT =      F    spin-orbit coupling
   INIWAV =      1    electr: 0-lowe 1-rand  2-diag
   LASPH  =      F    aspherical Exc in radial PAW
   METAGGA=      F    non-selfconsistent MetaGGA calc.

 Electronic Relaxation 1
   ENCUT  =  400.0 eV  29.40 Ry    5.42 a.u.  16.35 16.13 16.66*2*pi/ulx,y,z
   ENINI  =  400.0     initial cutoff
   ENAUG  =  644.9 eV  augmentation charge cutoff
   NELM   =    120;   NELMIN=  4; NELMDL= -5     # of ELM steps 
   EDIFF  = 0.1E-05   stopping-criterion for ELM
   LREAL  =      F    real-space projection
   NLSPLINE    = F    spline interpolate recip. space projectors
   LCOMPAT=      F    compatible to vasp.4.4
   GGA_COMPAT  = T    GGA compatible to vasp.4.4-vasp.4.6
   LMAXPAW     = -100 max onsite density
   LMAXMIX     =    2 max onsite mixed and CHGCAR
   VOSKOWN=      0    Vosko Wilk Nusair interpolation
   ROPT   =    0.00000   0.00000
 Ionic relaxation
   EDIFFG = 0.1E-04   stopping-criterion for IOM
   NSW    =     10    number of steps for IOM
   NBLOCK =      1;   KBLOCK =     10    inner block; outer block 
   IBRION =      0    ionic relax: 0-MD 1-quasi-New 2-CG
   NFREE  =      0    steps in history (QN), initial steepest desc. (CG)
   ISIF   =      2    stress and relaxation
   IWAVPR =     12    prediction:  0-non 1-charg 2-wave 3-comb
   ISYM   =      0    0-nonsym 1-usesym 2-fastsym
   LCORR  =      T    Harris-Foulkes like correction to forces

   POTIM  = 0.5000    time-step for ionic-motion
   TEIN   =    0.0    initial temperature
   TEBEG  =    0.0;   TEEND  =   0.0 temperature during run
   SMASS  =  -3.00    Nose mass-parameter (am)
   estimated Nose-frequenzy (Omega)   =  0.10E-29 period in steps =****** mass=  -0.230E-26a.u.
   SCALEE = 1.0000    scale energy and forces
   NPACO  =    256;   APACO  = 16.0  distance and # of slots for P.C.
   PSTRESS=    0.0 pullay stress

  Mass of Ions in am
   POMASS =   1.00 12.01
  Ionic Valenz
   ZVAL   =   1.00  4.00
  Atomic Wigner-Seitz radii
   RWIGS  =  -1.00 -1.00
  virtual crystal weights 
   VCA    =   1.00  1.00
   NELECT =       8.0000    total number of electrons
   NUPDOWN=      -1.0000    fix difference up-down

 DOS related values:
   EMIN   =  10.00;   EMAX   =-10.00  energy-range for DOS
   EFERMI =   0.00
   ISMEAR =     0;   SIGMA  =   0.20  broadening in eV -4-tet -1-fermi 0-gaus

 Electronic relaxation 2 (details)
   IALGO  =     68    algorithm
   LDIAG  =      T    sub-space diagonalisation (order eigenvalues)
   LSUBROT=      F    optimize rotation matrix (better conditioning)
   TURBO    =      0    0=normal 1=particle mesh
   IRESTART =      0    0=no restart 2=restart with 2 vectors
   NREBOOT  =      0    no. of reboots
   NMIN     =      0    reboot dimension
   EREF     =   0.00    reference energy to select bands
   IMIX   =      4    mixing-type and parameters
     AMIX     =   0.40;   BMIX     =  1.00
     AMIX_MAG =   1.60;   BMIX_MAG =  1.00
     AMIN     =   0.10
     WC   =   100.;   INIMIX=   1;  MIXPRE=   1;  MAXMIX= -45

 Intra band minimization:
   WEIMIN = 0.0010     energy-eigenvalue tresh-hold
   EBREAK =  0.31E-07  absolut break condition
   DEPER  =   0.30     relativ break condition  

   TIME   =   0.40     timestep for ELM

  volume/ion in A,a.u.               =     202.40      1365.84
  Fermi-wavevector in a.u.,A,eV,Ry     =   0.326122  0.616282  1.447060  0.106356
  Thomas-Fermi vector in A             =   1.217711
 
 Write flags
   LWAVE        =      F    write WAVECAR
   LDOWNSAMPLE  =      F    k-point downsampling of WAVECAR
   LCHARG       =      F    write CHGCAR
   LVTOT        =      F    write LOCPOT, total local potential
   LVHAR        =      F    write LOCPOT, Hartree potential only
   LELF         =      F    write electronic localiz. function (ELF)
   LORBIT       =      0    0 simple, 1 ext, 2 COOP (PROOUT), +10 PAW based schemes


 Dipole corrections
   LMONO  =      F    monopole corrections only (constant potential shift)
   LDIPOL =      F    correct potential (dipole corrections)
   IDIPOL =      0    1-x, 2-y, 3-z, 4-all directions 
   EPSILON=  1.0000000 bulk dielectric constant

 Exchange correlation treatment:
   GGA     =    --    GGA type
   LEXCH   =     8    internal setting for exchange type
   VOSKOWN=      0    Vosko Wilk Nusair interpolation
   LHFCALC =     F    Hartree Fock is set to
   LHFONE  =     F    Hartree Fock one center treatment
   AEXX    =    0.0000 exact exchange contribution

 Linear response parameters
   LEPSILON=     F    determine dielectric tensor
   LRPA    =     F    only Hartree local field effects (RPA)
   LNABLA  =     F    use nabla operator in PAW spheres
   LVEL    =     F    velocity operator in full k-point grid
   LINTERFAST=   F  fast interpolation
   KINTER  =     0    interpolate to denser k-point grid
   CSHIFT  =0.1000    complex shift for real part using Kramers Kronig
   OMEGAMAX=  -1.0    maximum frequency
   DEG_THRESHOLD= 0.2000000E-02 threshold for treating states as degnerate
   RTIME   =   -0.100 relaxation time in fs
  (WPLASMAI=    0.000 imaginary part of plasma frequency in eV, 0.658/RTIME)
   DFIELD  = 0.0000000 0.0000000 0.0000000 field for delta impulse in time
 
 Orbital magnetization related:
   ORBITALMAG=     F  switch on orbital magnetization
   LCHIMAG   =     F  perturbation theory with respect to B field
   DQ        =  0.001000  dq finite difference perturbation B field
   LLRAUG    =     F  two centre corrections for induced B field



--------------------------------------------------------------------------------------------------------


 molecular dynamics for ions
   using a microcanonical ensemble
 charge density and potential will be updated during run
 non-spin polarized calculation
 RMM-DIIS sequential band-by-band and
  variant of blocked Davidson during initial phase
 perform sub-space diagonalisation
    before iterative eigenvector-optimisation
 modified Broyden-mixing scheme, WC =      100.0
 initial mixing is a Kerker type mixing with AMIX =  0.4000 and BMIX =      1.0000
 Hartree-type preconditioning will be used
 using additional bands            4
 reciprocal scheme for non local part
 use partial core corrections
 calculate Harris-corrections to forces 
   (improved forces if not selfconsistent)
 use gradient corrections 
 use of overlap-Matrix (Vanderbilt PP)
 Gauss-broadening in eV      SIGMA  =   0.20


--------------------------------------------------------------------------------------------------------


  energy-cutoff  :      400.00
  volume of cell :     1011.98
      direct lattice vectors                 reciprocal lattice vectors
    10.023600368  0.000000000  0.000000000     0.099764552 -0.000104558 -0.002708928
     0.010366290  9.891018374  0.000000000     0.000000000  0.101101824 -0.002735319
     0.277448264  0.276157253 10.207220319     0.000000000  0.000000000  0.097969865

  length of vectors
    10.023600368  9.891023806 10.214724030     0.099801378  0.101138820  0.097969865


 
 k-points in units of 2pi/SCALE and weight: read from INCAR                         
   0.02494114  0.02524932  0.02313140       0.250
  -0.02494114  0.02530160  0.02448587       0.250
   0.02494114 -0.02530160  0.02449906       0.250
  -0.02494114 -0.02524932  0.02585353       0.250
 
 k-points in reciprocal lattice and weights: read from INCAR                         
   0.25000000  0.25000000  0.25000000       0.250
  -0.25000000  0.25000000  0.25000000       0.250
   0.25000000 -0.25000000  0.25000000       0.250
  -0.25000000 -0.25000000  0.25000000       0.250
 
 position of ions in fractional coordinates (direct lattice) 
   0.53838576  0.40669066  0.36088019
   0.39475196  0.47998864  0.43877073
   0.55210597  0.56543222  0.44271300
   0.52852567  0.41654392  0.53890799
   0.50331959  0.46712929  0.44524742
 
 position of ions in cartesian coordinates  (Angst):
   5.50090515  4.12224449  3.68358365
   4.08354773  4.86874615  4.47862950
   5.66278099  5.71495888  4.51886914
   5.45156723  4.26886694  5.50075259
   5.17344993  4.74334274  4.54473855
 


--------------------------------------------------------------------------------------------------------


 k-point  1 :   0.2500 0.2500 0.2500  plane waves:   18360
 k-point  2 :  -0.2500 0.2500 0.2500  plane waves:   18373
 k-point  3 :   0.2500-0.2500 0.2500  plane waves:   18384
 k-point  4 :  -0.2500-0.2500 0.2500  plane waves:   18393

 maximum and minimum number of plane-waves per node :      4616     4577

 maximum number of plane-waves:     18393
 maximum index in each direction: 
   IXMAX=   16   IYMAX=   16   IZMAX=   16
   IXMIN=  -16   IYMIN=  -16   IZMIN=  -16


 parallel 3D FFT for wavefunctions:
    minimum data exchange during FFTs selected (reduces bandwidth)
 parallel 3D FFT for charge:
    minimum data exchange during FFTs selected (reduces bandwidth)


 total amount of memory used by VASP MPI-rank0    55419. kBytes
=======================================================================

   base      :      30000. kBytes
   nonl-proj :       2720. kBytes
   fftplans  :       8576. kBytes
   grid      :      13527. kBytes
   one-center:          6. kBytes
   wavefun   :        590. kBytes
 
     INWAV:  cpu time    0.0000: real time    0.0000
 Broyden mixing: mesh for mixing (old mesh)
   NGX = 33   NGY = 33   NGZ = 33
  (NGX  =140   NGY  =140   NGZ  =140)
  gives a total of  35937 points

 initial charge density was supplied:
 charge density of overlapping atoms calculated
 number of electron       8.0000000 magnetization 
 keeping initial charge density in first step


--------------------------------------------------------------------------------------------------------


 Maximum index for augmentation-charges          180 (set IRDMAX)


--------------------------------------------------------------------------------------------------------


 First call to EWALD:  gamma=   0.177
 Maximum number of real-space cells 3x 3x 3
 Maximum number of reciprocal cells 3x 3x 3

    FEWALD:  cpu time    0.0015: real time    0.0015


--------------------------------------- Iteration      1(   1)  ---------------------------------------


    POTLOK:  cpu time    0.1422: real time    0.1501
    SETDIJ:  cpu time    0.0030: real time    0.0036
     EDDAV:  cpu time    0.2108: real time    0.2280
       DOS:  cpu time    0.0003: real time    0.0009
    --------------------------------------------
      LOOP:  cpu time    0.3563: real time    0.3825

 eigenvalue-minimisations  :    96
 total energy-change (2. order) : 0.1495728E+02  (-0.1946688E+03)
 number of electron       8.0000000 magnetization 
 augmentation part        8.0000000 magnetization 

 Free energy of the ion-electron system (eV)
  ---------------------------------------------------
  alpha Z        PSCENC =         0.23938281
  Ewald energy   TEWEN  =       128.45025610
  -Hartree energ DENC   =      -244.07644811
  -exchange      EXHF   =         0.00000000
  -V(xc)+E(xc)   XCENC  =        21.99084247
  PAW double counting   =       117.05815612     -117.66307307
  entropy T*S    EENTRO =        -0.00000000
  eigenvalues    EBANDS =       -88.08359519
  atomic energy  EATOM  =       197.04175453
  Solvation  Ediel_sol  =         0.00000000
  ---------------------------------------------------
  free energy    TOTEN  =        14.95727566 eV

  energy without entropy =       14.95727566  energy(sigma->0) =       14.95727566


--------------------------------------------------------------------------------------------------------




--------------------------------------- Iteration      1(   2)  ---------------------------------------


     EDDAV:  cpu time    0.1559: real time    0.1560
       DOS:  cpu time    0.0002: real time    0.0002
    --------------------------------------------
      LOOP:  cpu time    0.1561: real time    0.1561

 eigenvalue-minimisations  :    64
 total energy-change (2. order) :-0.3792301E+02  (-0.3792301E+02)
 number of electron       8.0000000 magnetization 
 augmentation part        8.0000000 magnetization 

 Free energy of the ion-electron system (eV)
  ---------------------------------------------------
  alpha Z        PSCENC =         0.23938281
  Ewald energy   TEWEN  =       128.45025610
  -Hartree energ DENC   =      -244.07644811
  -exchange      EXHF   =         0.00000000
  -V(xc)+E(xc)   XCENC  =        21.99084247
  PAW double counting   =       117.05815612     -117.66307307
  entropy T*S    EENTRO =        -0.00000000
  eigenvalues    EBANDS =      -126.00660149
  atomic energy  EATOM  =       197.04175453
  Solvation  Ediel_sol  =         0.00000000
  ---------------------------------------------------
  free energy    TOTEN  =       -22.96573064 eV

  energy without entropy =      -22.96573064  energy(sigma->0) =      -22.96573064


--------------------------------------------------------------------------------------------------------




--------------------------------------- Iteration      1(   3)  ---------------------------------------


     EDDAV:  cpu time    0.1564: real time    0.1564
       DOS:  cpu time    0.0002: real time    0.0002
    --------------------------------------------
      LOOP:  cpu time    0.1566: real time    0.1566

 eigenvalue-minimisations  :    64
 total energy-change (2. order) :-0.4361610E+01  (-0.4361610E+01)
 number of electron       8.0000000 magnetization 
 augmentation part        8.0000000 magnetization 

 Free energy of the ion-electron system (eV)
  ---------------------------------------------------
  alpha Z        PSCENC =         0.23938281
  Ewald energy   TEWEN  =       128.45025610
  -Hartree energ DENC   =      -244.07644811
  -exchange      EXHF   =         0.00000000
  -V(xc)+E(xc)   XCENC  =        21.99084247
  PAW double counting   =       117.05815612     -117.66307307
  entropy T*S    EENTRO =        -0.00000000
  eigenvalues    EBANDS =      -130.36821122
  atomic energy  EATOM  =       197.04175453
  Solvation  Ediel_sol  =         0.00000000
  ---------------------------------------------------
  free energy    TOTEN  =       -27.32734036 eV

  energy without entropy =      -27.32734036  energy(sigma->0) =      -27.32734036


--------------------------------------------------------------------------------------------------------




--------------------------------------- Iteration      1(   4)  ---------------------------------------


     EDDAV:  cpu time    0.2605: real time    0.2605
       DOS:  cpu time    0.0003: real time    0.0003
    --------------------------------------------
      LOOP:  cpu time    0.2608: real time    0.2608

 eigenvalue-minimisations  :   128
 total energy-change (2. order) :-0.1716085E+00  (-0.1716084E+00)
 number of electron       8.0000000 magnetization 
 augmentation part        8.0000000 magnetization 

 Free energy of the ion-electron system (eV)
  ---------------------------------------------------
  alpha Z        PSCENC =         0.23938281
  Ewald energy   TEWEN  =       128.45025610
  -Hartree energ DENC   =      -244.07644811
  -exchange      EXHF   =         0.00000000
  -V(xc)+E(xc)   XCENC  =        21.99084247
  PAW double counting   =       117.05815612     -117.66307307
  entropy T*S    EENTRO =        -0.00000000
  eigenvalues    EBANDS =      -130.53981967
  atomic energy  EATOM  =       197.04175453
  Solvation  Ediel_sol  =         0.00000000
  ---------------------------------------------------
  free energy    TOTEN  =       -27.49894881 eV

  energy without entropy =      -27.49894881  energy(sigma->0) =      -27.49894881


--------------------------------------------------------------------------------------------------------




--------------------------------------- Iteration      1(   5)  ---------------------------------------


     EDDAV:  cpu time    0.2076: real time    0.2076
       DOS:  cpu time    0.0003: real time    0.0003
    CHARGE:  cpu time    0.0202: real time    0.0202
    MIXING:  cpu time    0.0041: real time    0.0041
    --------------------------------------------
      LOOP:  cpu time    0.2322: real time    0.2322

 eigenvalue-minimisations  :    96
 total energy-change (2. order) :-0.5363183E-04  (-0.5363207E-04)
 number of electron       8.0000001 magnetization 
 augmentation part        0.2240161 magnetization 

 Broyden mixing:
  rms(total) = 0.86546E+00    rms(broyden)= 0.86525E+00
  rms(prec ) = 0.12225E+01
  weight for this iteration     100.00

 Free energy of the ion-electron system (eV)
  ---------------------------------------------------
  alpha Z        PSCENC =         0.23938281
  Ewald energy   TEWEN  =       128.45025610
  -Hartree energ DENC   =      -244.07644811
  -exchange      EXHF   =         0.00000000
  -V(xc)+E(xc)   XCENC  =        21.99084247
  PAW double counting   =       117.05815612     -117.66307307
  entropy T*S    EENTRO =        -0.00000000
  eigenvalues    EBANDS =      -130.53987330
  atomic energy  EATOM  =       197.04175453
  Solvation  Ediel_sol  =         0.00000000
  ---------------------------------------------------
  free energy    TOTEN  =       -27.49900244 eV

  energy without entropy =      -27.49900244  energy(sigma->0) =      -27.49900244


--------------------------------------------------------------------------------------------------------




--------------------------------------- Iteration      1(   6)  ---------------------------------------


    POTLOK:  cpu time    0.1380: real time    0.1380
    SETDIJ:  cpu time    0.0014: real time    0.0014
    EDDIAG:  cpu time    0.0414: real time    0.0501
  RMM-DIIS:  cpu time    0.1574: real time    0.1574
    ORTHCH:  cpu time    0.0021: real time    0.0021
       DOS:  cpu time    0.0002: real time    0.0002
    CHARGE:  cpu time    0.0200: real time    0.0200
    MIXING:  cpu time    0.0046: real time    0.0060
    --------------------------------------------
      LOOP:  cpu time    0.3651: real time    0.3753

 eigenvalue-minimisations  :    64
 total energy-change (2. order) : 0.2852908E+01  (-0.5304632E+00)
 number of electron       8.0000000 magnetization 
 augmentation part        0.1974775 magnetization 

 Broyden mixing:
  rms(total) = 0.42664E+00    rms(broyden)= 0.42656E+00
  rms(prec ) = 0.55210E+00
  weight for this iteration     100.00

 eigenvalues of (default mixing * dielectric matrix)
  average eigenvalue GAMMA=   1.3033
  1.3033

 Free energy of the ion-electron system (eV)
  ---------------------------------------------------
  alpha Z        PSCENC =         0.23938281
  Ewald energy   TEWEN  =       128.45025610
  -Hartree energ DENC   =      -263.66710306
  -exchange      EXHF   =         0.00000000
  -V(xc)+E(xc)   XCENC  =        23.17998666
  PAW double counting   =       237.22944706     -238.00729519
  entropy T*S    EENTRO =        -0.00000000
  eigenvalues    EBANDS =      -109.11252326
  atomic energy  EATOM  =       197.04175453
  Solvation  Ediel_sol  =         0.00000000
  ---------------------------------------------------
  free energy    TOTEN  =       -24.64609435 eV

  energy without entropy =      -24.64609435  energy(sigma->0) =      -24.64609435


--------------------------------------------------------------------------------------------------------




--------------------------------------- Iteration      1(   7)  ---------------------------------------


    POTLOK:  cpu time    0.1385: real time    0.1385
    SETDIJ:  cpu time    0.0016: real time    0.0016
    EDDIAG:  cpu time    0.0374: real time    0.0374
  RMM-DIIS:  cpu time    0.1577: real time    0.1577
    ORTHCH:  cpu time    0.0017: real time    0.0017
       DOS:  cpu time    0.0002: real time    0.0002
    CHARGE:  cpu time    0.0186: real time    0.0186
    MIXING:  cpu time    0.0045: real time    0.0045
    --------------------------------------------
      LOOP:  cpu time    0.3600: real time    0.3600

 eigenvalue-minimisations  :    64
 total energy-change (2. order) : 0.4850375E+00  (-0.1188634E+00)
 number of electron       8.0000000 magnetization 
 augmentation part        0.1871080 magnetization 

 Broyden mixing:
  rms(total) = 0.22709E+00    rms(broyden)= 0.22704E+00
  rms(prec ) = 0.27414E+00
  weight for this iteration     100.00

 eigenvalues of (default mixing * dielectric matrix)
  average eigenvalue GAMMA=   1.8420
  1.4544  2.2296

 Free energy of the ion-electron system (eV)
  ---------------------------------------------------
  alpha Z        PSCENC =         0.23938281
  Ewald energy   TEWEN  =       128.45025610
  -Hartree energ DENC   =      -275.21508121
  -exchange      EXHF   =         0.00000000
  -V(xc)+E(xc)   XCENC  =        24.02945321
  PAW double counting   =       361.96701862     -362.78316055
  entropy T*S    EENTRO =        -0.00000000
  eigenvalues    EBANDS =       -97.89068034
  atomic energy  EATOM  =       197.04175453
  Solvation  Ediel_sol  =         0.00000000
  ---------------------------------------------------
  free energy    TOTEN  =       -24.16105684 eV

  energy without entropy =      -24.16105684  energy(sigma->0) =      -24.16105684


--------------------------------------------------------------------------------------------------------




--------------------------------------- Iteration      1(   8)  ---------------------------------------


    POTLOK:  cpu time    0.1378: real time    0.1378
    SETDIJ:  cpu time    0.0015: real time    0.0015
    EDDIAG:  cpu time    0.0370: real time    0.0370
  RMM-DIIS:  cpu time    0.1590: real time    0.1590
    ORTHCH:  cpu time    0.0015: real time    0.0015
       DOS:  cpu time    0.0002: real time    0.0002
    CHARGE:  cpu time    0.0184: real time    0.0185
    MIXING:  cpu time    0.0044: real time    0.0044
    --------------------------------------------
      LOOP:  cpu time    0.3599: real time    0.3599

 eigenvalue-minimisations  :    64
 total energy-change (2. order) : 0.1456818E+00  (-0.1621689E-01)
 number of electron       8.0000000 magnetization 
 augmentation part        0.1857363 magnetization 

 Broyden mixing:
  rms(total) = 0.22668E-01    rms(broyden)= 0.22647E-01
  rms(prec ) = 0.52278E-01
  weight for this iteration     100.00

 eigenvalues of (default mixing * dielectric matrix)
  average eigenvalue GAMMA=   1.5463
  2.2482  0.9863  1.4043

 Free energy of the ion-electron system (eV)
  ---------------------------------------------------
  alpha Z        PSCENC =         0.23938281
  Ewald energy   TEWEN  =       128.45025610
  -Hartree energ DENC   =      -280.60606995
  -exchange      EXHF   =         0.00000000
  -V(xc)+E(xc)   XCENC  =        24.56448541
  PAW double counting   =       469.53620956     -470.32044613
  entropy T*S    EENTRO =        -0.00000000
  eigenvalues    EBANDS =       -92.92094741
  atomic energy  EATOM  =       197.04175453
  Solvation  Ediel_sol  =         0.00000000
  ---------------------------------------------------
  free energy    TOTEN  =       -24.01537508 eV

  energy without entropy =      -24.01537508  energy(sigma->0) =      -24.01537508


--------------------------------------------------------------------------------------------------------




--------------------------------------- Iteration      1(   9)  ---------------------------------------


    POTLOK:  cpu time    0.1371: real time    0.1372
    SETDIJ:  cpu time    0.0014: real time    0.0014
    EDDIAG:  cpu time    0.0371: real time    0.0372
  RMM-DIIS:  cpu time    0.1601: real time    0.1601
    ORTHCH:  cpu time    0.0014: real time    0.0014
       DOS:  cpu time    0.0002: real time    0.0002
    CHARGE:  cpu time    0.0184: real time    0.0184
    MIXING:  cpu time    0.0046: real time    0.0046
    --------------------------------------------
      LOOP:  cpu time    0.3604: real time    0.3605

 eigenvalue-minimisations  :    64
 total energy-change (2. order) : 0.5630985E-02  (-0.1095766E-02)
 number of electron       8.0000000 magnetization 
 augmentation part        0.1851751 magnetization 

 Broyden mixing:
  rms(total) = 0.19476E-01    rms(broyden)= 0.19472E-01
  rms(prec ) = 0.40101E-01
  weight for this iteration     100.00

 eigenvalues of (default mixing * dielectric matrix)
  average eigenvalue GAMMA=   2.0956
  3.0891  2.9187  1.0021  1.3723

 Free energy of the ion-electron system (eV)
  ---------------------------------------------------
  alpha Z        PSCENC =         0.23938281
  Ewald energy   TEWEN  =       128.45025610
  -Hartree energ DENC   =      -281.85270658
  -exchange      EXHF   =         0.00000000
  -V(xc)+E(xc)   XCENC  =        24.63307416
  PAW double counting   =       472.66994660     -473.45689008
  entropy T*S    EENTRO =        -0.00000000
  eigenvalues    EBANDS =       -91.73456164
  atomic energy  EATOM  =       197.04175453
  Solvation  Ediel_sol  =         0.00000000
  ---------------------------------------------------
  free energy    TOTEN  =       -24.00974409 eV

  energy without entropy =      -24.00974409  energy(sigma->0) =      -24.00974409


--------------------------------------------------------------------------------------------------------




--------------------------------------- Iteration      1(  10)  ---------------------------------------


    POTLOK:  cpu time    0.1338: real time    0.1338
    SETDIJ:  cpu time    0.0015: real time    0.0015
    EDDIAG:  cpu time    0.0369: real time    0.0369
  RMM-DIIS:  cpu time    0.1600: real time    0.1600
    ORTHCH:  cpu time    0.0013: real time    0.0013
       DOS:  cpu time    0.0002: real time    0.0002
    CHARGE:  cpu time    0.0187: real time    0.0187
    MIXING:  cpu time    0.0049: real time    0.0071
    --------------------------------------------
      LOOP:  cpu time    0.3573: real time    0.3595

 eigenvalue-minimisations  :    64
 total energy-change (2. order) : 0.6234272E-02  (-0.2468202E-02)
 number of electron       8.0000000 magnetization 
 augmentation part        0.1841293 magnetization 

 Broyden mixing:
  rms(total) = 0.27828E-01    rms(broyden)= 0.27826E-01
  rms(prec ) = 0.35395E-01
  weight for this iteration     100.00

 eigenvalues of (default mixing * dielectric matrix)
  average eigenvalue GAMMA=   1.7833
  3.0746  2.4285  1.2168  1.2168  0.9796

 Free energy of the ion-electron system (eV)
  ---------------------------------------------------
  alpha Z        PSCENC =         0.23938281
  Ewald energy   TEWEN  =       128.45025610
  -Hartree energ DENC   =      -284.05010502
  -exchange      EXHF   =         0.00000000
  -V(xc)+E(xc)   XCENC  =        24.70354261
  PAW double counting   =       456.89333759     -457.68384022
  entropy T*S    EENTRO =        -0.00000000
  eigenvalues    EBANDS =       -89.59783822
  atomic energy  EATOM  =       197.04175453
  Solvation  Ediel_sol  =         0.00000000
  ---------------------------------------------------
  free energy    TOTEN  =       -24.00350982 eV

  energy without entropy =      -24.00350982  energy(sigma->0) =      -24.00350982


--------------------------------------------------------------------------------------------------------




--------------------------------------- Iteration      1(  11)  ---------------------------------------


    POTLOK:  cpu time    0.1333: real time    0.1334
    SETDIJ:  cpu time    0.0014: real time    0.0014
    EDDIAG:  cpu time    0.0370: real time    0.0370
  RMM-DIIS:  cpu time    0.1555: real time    0.1555
    ORTHCH:  cpu time    0.0016: real time    0.0016
       DOS:  cpu time    0.0002: real time    0.0002
    CHARGE:  cpu time    0.0189: real time    0.0189
    MIXING:  cpu time    0.0048: real time    0.0048
    --------------------------------------------
      LOOP:  cpu time    0.3528: real time    0.3528

 eigenvalue-minimisations  :    64
 total energy-change (2. order) :-0.6225559E-03  (-0.7778238E-03)
 number of electron       8.0000000 magnetization 
 augmentation part        0.1844830 magnetization 

 Broyden mixing:
  rms(total) = 0.77181E-02    rms(broyden)= 0.77150E-02
  rms(prec ) = 0.13648E-01
  weight for this iteration     100.00

 eigenvalues of (default mixing * dielectric matrix)
  average eigenvalue GAMMA=   2.2839
  4.8629  3.1078  2.4284  1.2823  1.0110  1.0110

 Free energy of the ion-electron system (eV)
  ---------------------------------------------------
  alpha Z        PSCENC =         0.23938281
  Ewald energy   TEWEN  =       128.45025610
  -Hartree energ DENC   =      -283.94245444
  -exchange      EXHF   =         0.00000000
  -V(xc)+E(xc)   XCENC  =        24.71740882
  PAW double counting   =       465.85787206     -466.64096819
  entropy T*S    EENTRO =        -0.00000000
  eigenvalues    EBANDS =       -89.72738407
  atomic energy  EATOM  =       197.04175453
  Solvation  Ediel_sol  =         0.00000000
  ---------------------------------------------------
  free energy    TOTEN  =       -24.00413238 eV

  energy without entropy =      -24.00413238  energy(sigma->0) =      -24.00413238


--------------------------------------------------------------------------------------------------------




--------------------------------------- Iteration      1(  12)  ---------------------------------------


    POTLOK:  cpu time    0.1277: real time    0.1277
    SETDIJ:  cpu time    0.0014: real time    0.0014
    EDDIAG:  cpu time    0.0368: real time    0.0368
  RMM-DIIS:  cpu time    0.1578: real time    0.1578
    ORTHCH:  cpu time    0.0014: real time    0.0014
       DOS:  cpu time    0.0002: real time    0.0002
    CHARGE:  cpu time    0.0182: real time    0.0182
    MIXING:  cpu time    0.0050: real time    0.0050
    --------------------------------------------
      LOOP:  cpu time    0.3484: real time    0.3485

 eigenvalue-minimisations  :    64
 total energy-change (2. order) :-0.9679377E-02  (-0.3831665E-03)
 number of electron       8.0000000 magnetization 
 augmentation part        0.1847214 magnetization 

 Broyden mixing:
  rms(total) = 0.12717E-01    rms(broyden)= 0.12716E-01
  rms(prec ) = 0.16581E-01
  weight for this iteration     100.00

 eigenvalues of (default mixing * dielectric matrix)
  average eigenvalue GAMMA=   2.0199
  4.8289  2.9460  2.4307  1.2339  1.0044  1.0044  0.6913

 Free energy of the ion-electron system (eV)
  ---------------------------------------------------
  alpha Z        PSCENC =         0.23938281
  Ewald energy   TEWEN  =       128.45025610
  -Hartree energ DENC   =      -284.13755265
  -exchange      EXHF   =         0.00000000
  -V(xc)+E(xc)   XCENC  =        24.70922316
  PAW double counting   =       463.04093227     -463.82267285
  entropy T*S    EENTRO =        -0.00000000
  eigenvalues    EBANDS =       -89.53513512
  atomic energy  EATOM  =       197.04175453
  Solvation  Ediel_sol  =         0.00000000
  ---------------------------------------------------
  free energy    TOTEN  =       -24.01381175 eV

  energy without entropy =      -24.01381175  energy(sigma->0) =      -24.01381175


--------------------------------------------------------------------------------------------------------




--------------------------------------- Iteration      1(  13)  ---------------------------------------


    POTLOK:  cpu time    0.1252: real time    0.1252
    SETDIJ:  cpu time    0.0014: real time    0.0014
    EDDIAG:  cpu time    0.0367: real time    0.0368
  RMM-DIIS:  cpu time    0.1564: real time    0.1564
    ORTHCH:  cpu time    0.0016: real time    0.0016
       DOS:  cpu time    0.0002: real time    0.0002
    CHARGE:  cpu time    0.0183: real time    0.0183
    MIXING:  cpu time    0.0052: real time    0.0052
    --------------------------------------------
      LOOP:  cpu time    0.3451: real time    0.3451

 eigenvalue-minimisations  :    64
 total energy-change (2. order) :-0.4335839E-03  (-0.9122241E-04)
 number of electron       8.0000000 magnetization 
 augmentation part        0.1844929 magnetization 

 Broyden mixing:
  rms(total) = 0.54529E-02    rms(broyden)= 0.54528E-02
  rms(prec ) = 0.73053E-02
  weight for this iteration     100.00

 eigenvalues of (default mixing * dielectric matrix)
  average eigenvalue GAMMA=   2.4360
  6.1671  4.1200  2.5328  2.3682  1.2140  1.2140  0.9976  0.8744

 Free energy of the ion-electron system (eV)
  ---------------------------------------------------
  alpha Z        PSCENC =         0.23938281
  Ewald energy   TEWEN  =       128.45025610
  -Hartree energ DENC   =      -284.32222240
  -exchange      EXHF   =         0.00000000
  -V(xc)+E(xc)   XCENC  =        24.71463645
  PAW double counting   =       462.87068396     -463.65477749
  entropy T*S    EENTRO =        -0.00000000
  eigenvalues    EBANDS =       -89.35395929
  atomic energy  EATOM  =       197.04175453
  Solvation  Ediel_sol  =         0.00000000
  ---------------------------------------------------
  free energy    TOTEN  =       -24.01424534 eV

  energy without entropy =      -24.01424534  energy(sigma->0) =      -24.01424534


--------------------------------------------------------------------------------------------------------




--------------------------------------- Iteration      1(  14)  ---------------------------------------


    POTLOK:  cpu time    0.1249: real time    0.1249
    SETDIJ:  cpu time    0.0015: real time    0.0015
    EDDIAG:  cpu time    0.0366: real time    0.0366
  RMM-DIIS:  cpu time    0.1567: real time    0.1567
    ORTHCH:  cpu time    0.0015: real time    0.0015
       DOS:  cpu time    0.0002: real time    0.0002
    CHARGE:  cpu time    0.0182: real time    0.0182
    MIXING:  cpu time    0.0053: real time    0.0053
    --------------------------------------------
      LOOP:  cpu time    0.3448: real time    0.3448

 eigenvalue-minimisations  :    64
 total energy-change (2. order) :-0.2883259E-02  (-0.1789508E-03)
 number of electron       8.0000000 magnetization 
 augmentation part        0.1843090 magnetization 

 Broyden mixing:
  rms(total) = 0.41369E-02    rms(broyden)= 0.41351E-02
  rms(prec ) = 0.53523E-02
  weight for this iteration     100.00

 eigenvalues of (default mixing * dielectric matrix)
  average eigenvalue GAMMA=   2.3411
  6.5171  4.1391  2.4985  2.4234  1.2098  1.2098  0.9255  0.9835  1.1637

 Free energy of the ion-electron system (eV)
  ---------------------------------------------------
  alpha Z        PSCENC =         0.23938281
  Ewald energy   TEWEN  =       128.45025610
  -Hartree energ DENC   =      -284.36107589
  -exchange      EXHF   =         0.00000000
  -V(xc)+E(xc)   XCENC  =        24.70600222
  PAW double counting   =       462.02317135     -462.80914001
  entropy T*S    EENTRO =        -0.00000000
  eigenvalues    EBANDS =       -89.30747971
  atomic energy  EATOM  =       197.04175453
  Solvation  Ediel_sol  =         0.00000000
  ---------------------------------------------------
  free energy    TOTEN  =       -24.01712860 eV

  energy without entropy =      -24.01712860  energy(sigma->0) =      -24.01712860


--------------------------------------------------------------------------------------------------------




--------------------------------------- Iteration      1(  15)  ---------------------------------------


    POTLOK:  cpu time    0.1246: real time    0.1246
    SETDIJ:  cpu time    0.0014: real time    0.0014
    EDDIAG:  cpu time    0.0365: real time    0.0365
  RMM-DIIS:  cpu time    0.1584: real time    0.1584
    ORTHCH:  cpu time    0.0016: real time    0.0016
       DOS:  cpu time    0.0002: real time    0.0002
    CHARGE:  cpu time    0.0183: real time    0.0183
    MIXING:  cpu time    0.0054: real time    0.0054
    --------------------------------------------
      LOOP:  cpu time    0.3463: real time    0.3464

 eigenvalue-minimisations  :    64
 total energy-change (2. order) :-0.2081266E-03  (-0.9649456E-05)
 number of electron       8.0000000 magnetization 
 augmentation part        0.1843070 magnetization 

 Broyden mixing:
  rms(total) = 0.15746E-02    rms(broyden)= 0.15745E-02
  rms(prec ) = 0.20521E-02
  weight for this iteration     100.00

 eigenvalues of (default mixing * dielectric matrix)
  average eigenvalue GAMMA=   2.5656
  7.6116  4.9445  2.9955  2.5578  2.0716  1.2832  1.2832  1.0204  0.9936  0.8946

 Free energy of the ion-electron system (eV)
  ---------------------------------------------------
  alpha Z        PSCENC =         0.23938281
  Ewald energy   TEWEN  =       128.45025610
  -Hartree energ DENC   =      -284.30731863
  -exchange      EXHF   =         0.00000000
  -V(xc)+E(xc)   XCENC  =        24.70417749
  PAW double counting   =       462.20351835     -462.98846836
  entropy T*S    EENTRO =        -0.00000000
  eigenvalues    EBANDS =       -89.36063901
  atomic energy  EATOM  =       197.04175453
  Solvation  Ediel_sol  =         0.00000000
  ---------------------------------------------------
  free energy    TOTEN  =       -24.01733672 eV

  energy without entropy =      -24.01733672  energy(sigma->0) =      -24.01733672


--------------------------------------------------------------------------------------------------------




--------------------------------------- Iteration      1(  16)  ---------------------------------------


    POTLOK:  cpu time    0.1256: real time    0.1256
    SETDIJ:  cpu time    0.0014: real time    0.0014
    EDDIAG:  cpu time    0.0363: real time    0.0363
  RMM-DIIS:  cpu time    0.1548: real time    0.1548
    ORTHCH:  cpu time    0.0016: real time    0.0016
       DOS:  cpu time    0.0002: real time    0.0002
    CHARGE:  cpu time    0.0182: real time    0.0182
    MIXING:  cpu time    0.0056: real time    0.0056
    --------------------------------------------
      LOOP:  cpu time    0.3437: real time    0.3437

 eigenvalue-minimisations  :    64
 total energy-change (2. order) :-0.2173677E-03  (-0.1632645E-04)
 number of electron       8.0000000 magnetization 
 augmentation part        0.1843816 magnetization 

 Broyden mixing:
  rms(total) = 0.13212E-02    rms(broyden)= 0.13207E-02
  rms(prec ) = 0.17532E-02
  weight for this iteration     100.00

 eigenvalues of (default mixing * dielectric matrix)
  average eigenvalue GAMMA=   2.4734
  7.7355  4.8334  3.4483  2.4092  2.2727  1.2793  1.2793  1.0414  1.0414  0.9332
  0.9332

 Free energy of the ion-electron system (eV)
  ---------------------------------------------------
  alpha Z        PSCENC =         0.23938281
  Ewald energy   TEWEN  =       128.45025610
  -Hartree energ DENC   =      -284.27561839
  -exchange      EXHF   =         0.00000000
  -V(xc)+E(xc)   XCENC  =        24.70358937
  PAW double counting   =       462.27741387     -463.06171358
  entropy T*S    EENTRO =        -0.00000000
  eigenvalues    EBANDS =       -89.39261881
  atomic energy  EATOM  =       197.04175453
  Solvation  Ediel_sol  =         0.00000000
  ---------------------------------------------------
  free energy    TOTEN  =       -24.01755409 eV

  energy without entropy =      -24.01755409  energy(sigma->0) =      -24.01755409


--------------------------------------------------------------------------------------------------------




--------------------------------------- Iteration      1(  17)  ---------------------------------------


    POTLOK:  cpu time    0.1262: real time    0.1262
    SETDIJ:  cpu time    0.0014: real time    0.0014
    EDDIAG:  cpu time    0.0367: real time    0.0367
  RMM-DIIS:  cpu time    0.1585: real time    0.1585
    ORTHCH:  cpu time    0.0016: real time    0.0016
       DOS:  cpu time    0.0002: real time    0.0002
    CHARGE:  cpu time    0.0183: real time    0.0183
    MIXING:  cpu time    0.0058: real time    0.0058
    --------------------------------------------
      LOOP:  cpu time    0.3486: real time    0.3487

 eigenvalue-minimisations  :    64
 total energy-change (2. order) :-0.2112564E-04  (-0.3811234E-05)
 number of electron       8.0000000 magnetization 
 augmentation part        0.1843417 magnetization 

 Broyden mixing:
  rms(total) = 0.20115E-03    rms(broyden)= 0.20107E-03
  rms(prec ) = 0.30536E-03
  weight for this iteration     100.00

 eigenvalues of (default mixing * dielectric matrix)
  average eigenvalue GAMMA=   2.5965
  8.4634  5.2220  4.0133  2.6047  2.4919  1.8857  1.3154  1.3154  1.0416  0.9949
  0.9229  0.8863

 Free energy of the ion-electron system (eV)
  ---------------------------------------------------
  alpha Z        PSCENC =         0.23938281
  Ewald energy   TEWEN  =       128.45025610
  -Hartree energ DENC   =      -284.32596438
  -exchange      EXHF   =         0.00000000
  -V(xc)+E(xc)   XCENC  =        24.70594560
  PAW double counting   =       462.28320176     -463.06795957
  entropy T*S    EENTRO =        -0.00000000
  eigenvalues    EBANDS =       -89.34419207
  atomic energy  EATOM  =       197.04175453
  Solvation  Ediel_sol  =         0.00000000
  ---------------------------------------------------
  free energy    TOTEN  =       -24.01757522 eV

  energy without entropy =      -24.01757522  energy(sigma->0) =      -24.01757522


--------------------------------------------------------------------------------------------------------




--------------------------------------- Iteration      1(  18)  ---------------------------------------


    POTLOK:  cpu time    0.1293: real time    0.1293
    SETDIJ:  cpu time    0.0015: real time    0.0015
    EDDIAG:  cpu time    0.0370: real time    0.0370
  RMM-DIIS:  cpu time    0.1242: real time    0.1242
    ORTHCH:  cpu time    0.0015: real time    0.0015
       DOS:  cpu time    0.0002: real time    0.0002
    CHARGE:  cpu time    0.0182: real time    0.0182
    MIXING:  cpu time    0.0060: real time    0.0060
    --------------------------------------------
      LOOP:  cpu time    0.3178: real time    0.3178

 eigenvalue-minimisations  :    48
 total energy-change (2. order) :-0.1566612E-04  (-0.1121531E-06)
 number of electron       8.0000000 magnetization 
 augmentation part        0.1843407 magnetization 

 Broyden mixing:
  rms(total) = 0.71288E-04    rms(broyden)= 0.71242E-04
  rms(prec ) = 0.11311E-03
  weight for this iteration     100.00

 eigenvalues of (default mixing * dielectric matrix)
  average eigenvalue GAMMA=   2.6083
  8.5137  5.4501  3.5917  3.5917  2.4860  2.2616  1.3120  1.3120  1.4279  1.1004
  0.8939  0.9833  0.9833

 Free energy of the ion-electron system (eV)
  ---------------------------------------------------
  alpha Z        PSCENC =         0.23938281
  Ewald energy   TEWEN  =       128.45025610
  -Hartree energ DENC   =      -284.31558018
  -exchange      EXHF   =         0.00000000
  -V(xc)+E(xc)   XCENC  =        24.70520887
  PAW double counting   =       462.18984823     -462.97456364
  entropy T*S    EENTRO =        -0.00000000
  eigenvalues    EBANDS =       -89.35389760
  atomic energy  EATOM  =       197.04175453
  Solvation  Ediel_sol  =         0.00000000
  ---------------------------------------------------
  free energy    TOTEN  =       -24.01759088 eV

  energy without entropy =      -24.01759088  energy(sigma->0) =      -24.01759088


--------------------------------------------------------------------------------------------------------




--------------------------------------- Iteration      1(  19)  ---------------------------------------


    POTLOK:  cpu time    0.1304: real time    0.1304
    SETDIJ:  cpu time    0.0014: real time    0.0014
    EDDIAG:  cpu time    0.0365: real time    0.0365
  RMM-DIIS:  cpu time    0.1259: real time    0.1259
    ORTHCH:  cpu time    0.0014: real time    0.0014
       DOS:  cpu time    0.0002: real time    0.0002
    CHARGE:  cpu time    0.0182: real time    0.0182
    MIXING:  cpu time    0.0062: real time    0.0062
    --------------------------------------------
      LOOP:  cpu time    0.3202: real time    0.3203

 eigenvalue-minimisations  :    48
 total energy-change (2. order) :-0.2993803E-05  (-0.3349689E-07)
 number of electron       8.0000000 magnetization 
 augmentation part        0.1843406 magnetization 

 Broyden mixing:
  rms(total) = 0.81082E-04    rms(broyden)= 0.81062E-04
  rms(prec ) = 0.10602E-03
  weight for this iteration     100.00

 eigenvalues of (default mixing * dielectric matrix)
  average eigenvalue GAMMA=   2.5638
  8.5406  5.5717  3.9230  3.4765  2.5004  2.5004  2.0185  1.3019  1.3019  1.0371
  0.9674  0.9674  0.8935  0.8935

 Free energy of the ion-electron system (eV)
  ---------------------------------------------------
  alpha Z        PSCENC =         0.23938281
  Ewald energy   TEWEN  =       128.45025610
  -Hartree energ DENC   =      -284.31255217
  -exchange      EXHF   =         0.00000000
  -V(xc)+E(xc)   XCENC  =        24.70495086
  PAW double counting   =       462.17231755     -462.95703169
  entropy T*S    EENTRO =        -0.00000000
  eigenvalues    EBANDS =       -89.35667186
  atomic energy  EATOM  =       197.04175453
  Solvation  Ediel_sol  =         0.00000000
  ---------------------------------------------------
  free energy    TOTEN  =       -24.01759388 eV

  energy without entropy =      -24.01759388  energy(sigma->0) =      -24.01759388


--------------------------------------------------------------------------------------------------------




--------------------------------------- Iteration      1(  20)  ---------------------------------------


    POTLOK:  cpu time    0.1314: real time    0.1314
    SETDIJ:  cpu time    0.0016: real time    0.0016
    EDDIAG:  cpu time    0.0366: real time    0.0366
  RMM-DIIS:  cpu time    0.1217: real time    0.1217
    ORTHCH:  cpu time    0.0016: real time    0.0016
       DOS:  cpu time    0.0002: real time    0.0002
    CHARGE:  cpu time    0.0182: real time    0.0182
    MIXING:  cpu time    0.0064: real time    0.0064
    --------------------------------------------
      LOOP:  cpu time    0.3176: real time    0.3176

 eigenvalue-minimisations  :    44
 total energy-change (2. order) :-0.1462435E-05  (-0.9803757E-08)
 number of electron       8.0000000 magnetization 
 augmentation part        0.1843422 magnetization 

 Broyden mixing:
  rms(total) = 0.25867E-04    rms(broyden)= 0.25862E-04
  rms(prec ) = 0.32880E-04
  weight for this iteration     100.00

 eigenvalues of (default mixing * dielectric matrix)
  average eigenvalue GAMMA=   2.4992
  8.5696  5.6041  4.1232  3.6745  2.4984  2.4754  2.0191  1.3031  1.3031  1.0592
  0.8888  0.9662  0.9662  1.0182  1.0182

 Free energy of the ion-electron system (eV)
  ---------------------------------------------------
  alpha Z        PSCENC =         0.23938281
  Ewald energy   TEWEN  =       128.45025610
  -Hartree energ DENC   =      -284.31096712
  -exchange      EXHF   =         0.00000000
  -V(xc)+E(xc)   XCENC  =        24.70489696
  PAW double counting   =       462.18315512     -462.96783761
  entropy T*S    EENTRO =        -0.00000000
  eigenvalues    EBANDS =       -89.35823612
  atomic energy  EATOM  =       197.04175453
  Solvation  Ediel_sol  =         0.00000000
  ---------------------------------------------------
  free energy    TOTEN  =       -24.01759534 eV

  energy without entropy =      -24.01759534  energy(sigma->0) =      -24.01759534


--------------------------------------------------------------------------------------------------------




--------------------------------------- Iteration      1(  21)  ---------------------------------------


    POTLOK:  cpu time    0.1315: real time    0.1315
    SETDIJ:  cpu time    0.0014: real time    0.0014
    EDDIAG:  cpu time    0.0364: real time    0.0364
  RMM-DIIS:  cpu time    0.1178: real time    0.1178
    ORTHCH:  cpu time    0.0018: real time    0.0018
       DOS:  cpu time    0.0002: real time    0.0002
    --------------------------------------------
      LOOP:  cpu time    0.2889: real time    0.2890

 eigenvalue-minimisations  :    36
 total energy-change (2. order) :-0.1791074E-06  (-0.2377412E-08)
 number of electron       8.0000000 magnetization 
 augmentation part        0.1843422 magnetization 

 Free energy of the ion-electron system (eV)
  ---------------------------------------------------
  alpha Z        PSCENC =         0.23938281
  Ewald energy   TEWEN  =       128.45025610
  -Hartree energ DENC   =      -284.31037890
  -exchange      EXHF   =         0.00000000
  -V(xc)+E(xc)   XCENC  =        24.70487143
  PAW double counting   =       462.18568233     -462.97035907
  entropy T*S    EENTRO =        -0.00000000
  eigenvalues    EBANDS =       -89.35880475
  atomic energy  EATOM  =       197.04175453
  Solvation  Ediel_sol  =         0.00000000
  ---------------------------------------------------
  free energy    TOTEN  =       -24.01759552 eV

  energy without entropy =      -24.01759552  energy(sigma->0) =      -24.01759552


--------------------------------------------------------------------------------------------------------




 average (electrostatic) potential at core
  the test charge radii are     0.5201  0.6991
  (the norm of the test charge is              1.0000)
       1 -41.3992       2 -41.4825       3 -41.5607       4 -41.4544       5 -57.9837
 
 
 
 E-fermi :  -8.2197     XC(G=0):  -0.6935     alpha+bet : -0.2082


 k-point     1 :       0.2500    0.2500    0.2500
  band No.  band energies     occupation 
      1     -16.8595      2.00000
      2      -9.4400      2.00000
      3      -9.1906      2.00000
      4      -9.1892      2.00000
      5      -0.3254      0.00000
      6       0.5678      0.00000
      7       0.6797      0.00000
      8       0.7074      0.00000

 k-point     2 :      -0.2500    0.2500    0.2500
  band No.  band energies     occupation 
      1     -16.8594      2.00000
      2      -9.4400      2.00000
      3      -9.1908      2.00000
      4      -9.1891      2.00000
      5      -0.3200      0.00000
      6       0.5507      0.00000
      7       0.6537      0.00000
      8       0.7060      0.00000

 k-point     3 :       0.2500   -0.2500    0.2500
  band No.  band energies     occupation 
      1     -16.8595      2.00000
      2      -9.4400      2.00000
      3      -9.1908      2.00000
      4      -9.1892      2.00000
      5      -0.3201      0.00000
      6       0.5530      0.00000
      7       0.6623      0.00000
      8       0.6969      0.00000

 k-point     4 :      -0.2500   -0.2500    0.2500
  band No.  band energies     occupation 
      1     -16.8595      2.00000
      2      -9.4400      2.00000
      3      -9.1908      2.00000
      4      -9.1892      2.00000
      5      -0.3154      0.00000
      6       0.5446      0.00000
      7       0.6521      0.00000
      8       0.6843      0.00000


--------------------------------------------------------------------------------------------------------


 soft charge-density along one line, spin component           1
         0         1         2         3         4         5         6         7         8         9
 total charge-density along one line
 
 pseudopotential strength for first ion, spin component:           1
 -2.340  -4.032  -0.001  -0.001   0.001
 -4.032  -6.862  -0.003  -0.004   0.002
 -0.001  -0.003  -0.338   0.002  -0.001
 -0.001  -0.004   0.002  -0.337  -0.001
  0.001   0.002  -0.001  -0.001  -0.339
 total augmentation occupancy for first ion, spin component:           1
  3.491  -0.630   0.231   0.321  -0.121
 -0.630   0.127  -0.043  -0.059   0.023
  0.231  -0.043   0.021   0.018  -0.007
  0.321  -0.059   0.018   0.033  -0.009
 -0.121   0.023  -0.007  -0.009   0.012


------------------------ aborting loop because EDIFF is reached ----------------------------------------


    CHARGE:  cpu time    0.0178: real time    0.0178
    FORLOC:  cpu time    0.0111: real time    0.0111
    FORNL :  cpu time    0.0173: real time    0.0173
    STRESS:  cpu time    0.1397: real time    0.1405
    FORCOR:  cpu time    0.1309: real time    0.1309
    FORHAR:  cpu time    0.0404: real time    0.0404
    MIXING:  cpu time    0.0065: real time    0.0065
    OFIELD:  cpu time    0.0000: real time    0.0000

  FORCE on cell =-STRESS in cart. coord.  units (eV):
  Direction    XX          YY          ZZ          XY          YZ          ZX
  --------------------------------------------------------------------------------------
  Alpha Z     0.23938     0.23938     0.23938
  Ewald      43.32002    43.49323    41.63698     1.23417     2.04311     2.76248
  Hartree    95.01291    96.14186    93.15663     0.19489     0.90035     0.98541
  E(xc)     -27.17053   -27.18011   -27.16134     0.00355     0.01113     0.01239
  Local    -197.04637  -198.54717  -193.58859    -1.09376    -2.71385    -3.29897
  n-local   -15.82203   -15.84368   -15.77574    -0.02827     0.02257    -0.00261
  augment     0.11667     0.11769     0.11829    -0.00303    -0.00121    -0.00320
  Kinetic   100.89132   101.38682   100.43088    -0.14613    -0.56597    -0.59330
  Fock        0.00000     0.00000     0.00000     0.00000     0.00000     0.00000
  -------------------------------------------------------------------------------------
  Total      -0.45862    -0.19197    -0.94351     0.16142    -0.30387    -0.13781
  in kB      -0.72609    -0.30392    -1.49378     0.25556    -0.48109    -0.21817
  external pressure =       -0.84 kB  Pullay stress =        0.00 kB

  kinetic pressure (ideal gas correction) =      0.00 kB
  total pressure  =     -0.84 kB
  Total+kin.    -0.726      -0.304      -1.494       0.256      -0.481      -0.218

 VOLUME and BASIS-vectors are now :
 -----------------------------------------------------------------------------
  energy-cutoff  :      400.00
  volume of cell :     1011.98
      direct lattice vectors                 reciprocal lattice vectors
    10.023600368  0.000000000  0.000000000     0.099764552 -0.000104558 -0.002708928
     0.010366290  9.891018374  0.000000000     0.000000000  0.101101824 -0.002735319
     0.277448264  0.276157253 10.207220319     0.000000000  0.000000000  0.097969865

  length of vectors
    10.023600368  9.891023806 10.214724030     0.099801378  0.101138820  0.097969865


 FORCES acting on ions
    electron-ion (+dipol)            ewald-force                    non-local-force                 convergence-correction
 -----------------------------------------------------------------------------------------------
   -.154E+02 0.292E+02 0.404E+02   0.169E+02 -.319E+02 -.441E+02   -.153E+01 0.296E+01 0.412E+01   0.220E-04 -.279E-04 -.598E-04
   0.522E+02 -.596E+01 0.318E+01   -.576E+02 0.660E+01 -.342E+01   0.542E+01 -.614E+00 0.353E+00   -.618E-04 0.133E-04 -.185E-06
   -.239E+02 -.474E+02 0.132E+01   0.265E+02 0.528E+02 -.160E+01   -.254E+01 -.502E+01 0.974E-01   0.236E-04 0.480E-04 -.478E-07
   -.132E+02 0.227E+02 -.455E+02   0.145E+02 -.251E+02 0.500E+02   -.139E+01 0.229E+01 -.470E+01   0.144E-04 -.176E-04 0.655E-04
   0.262E+00 0.207E+01 0.741E+00   -.297E+00 -.241E+01 -.855E+00   0.354E-01 -.116E+00 -.101E-01   0.702E-05 0.497E-04 0.244E-04
 -----------------------------------------------------------------------------------------------
   0.344E-02 0.502E+00 0.144E+00   0.555E-16 0.000E+00 0.000E+00   -.384E-02 -.502E+00 -.144E+00   0.521E-05 0.655E-04 0.299E-04
 
 
 POSITION                                       TOTAL-FORCE (eV/Angst)
 -----------------------------------------------------------------------------------
      5.50091      4.12224      3.68358        -0.006993      0.233903      0.408821
      4.08355      4.86875      4.47863         0.069054      0.027129      0.115377
      5.66278      5.71496      4.51887         0.083223      0.294396     -0.177656
      5.45157      4.26887      5.50075        -0.146082     -0.100520     -0.221624
      5.17345      4.74334      4.54474         0.000405     -0.455175     -0.124842
 -----------------------------------------------------------------------------------
    total drift:                               -0.000393     -0.000266      0.000077


--------------------------------------------------------------------------------------------------------



  FREE ENERGIE OF THE ION-ELECTRON SYSTEM (eV)
  ---------------------------------------------------
  free  energy   TOTEN  =       -24.01759552 eV

  energy  without entropy=      -24.01759552  energy(sigma->0) =      -24.01759552
 


--------------------------------------------------------------------------------------------------------


    POTLOK:  cpu time    0.1339: real time    0.1339


--------------------------------------------------------------------------------------------------------


           RANDOM_SEED =         172209738                0                0
           RANDOM_SEED =         172209738               30                0
   IONSTEP:  cpu time    0.0028: real time    0.0060

  ENERGY OF THE ELECTRON-ION-THERMOSTAT SYSTEM (eV)
  ---------------------------------------------------
% ion-electron   TOTEN  =       -24.017596  see above
  kinetic energy EKIN   =         0.000140
  kin. lattice  EKIN_LAT=         0.000000  (temperature    0.27 K)
  nose potential ES     =         0.000000
  nose kinetic   EPS    =         0.000000
  ---------------------------------------------------
  total energy   ETOTAL =       -24.017456 eV

  maximum distance moved by ions :      0.11E-03

    WAVPRE:  cpu time    0.0387: real time    0.0387
    FEWALD:  cpu time    0.0003: real time    0.0003
    ORTHCH:  cpu time    0.0080: real time    0.0080
     LOOP+:  cpu time    7.1904: real time    7.2358


--------------------------------------- Iteration      2(   1)  ---------------------------------------


    POTLOK:  cpu time    0.1338: real time    0.1338
    SETDIJ:  cpu time    0.0014: real time    0.0014
     EDDAV:  cpu time    0.1919: real time    0.1919
       DOS:  cpu time    0.0002: real time    0.0002
    CHARGE:  cpu time    0.0177: real time    0.0177
    MIXING:  cpu time    0.0053: real time    0.0053
    --------------------------------------------
      LOOP:  cpu time    0.3503: real time    0.3504

 eigenvalue-minimisations  :    88
 total energy-change (2. order) :-0.1085392E-02  (-0.1126980E-03)
 number of electron       8.0000000 magnetization 
 augmentation part        0.1844287 magnetization 

 Broyden mixing:
  rms(total) = 0.13912E-02    rms(broyden)= 0.13902E-02
  rms(prec ) = 0.16612E-02
  weight for this iteration     100.00

 Free energy of the ion-electron system (eV)
  ---------------------------------------------------
  alpha Z        PSCENC =         0.23938281
  Ewald energy   TEWEN  =       128.50493412
  -Hartree energ DENC   =      -284.34453842
  -exchange      EXHF   =         0.00000000
  -V(xc)+E(xc)   XCENC  =        24.70660785
  PAW double counting   =       462.18405861     -462.96874262
  entropy T*S    EENTRO =        -0.00000000
  eigenvalues    EBANDS =       -89.38213761
  atomic energy  EATOM  =       197.04175453
  Solvation  Ediel_sol  =         0.00000000
  ---------------------------------------------------
  free energy    TOTEN  =       -24.01868073 eV

  energy without entropy =      -24.01868073  energy(sigma->0) =      -24.01868073


--------------------------------------------------------------------------------------------------------




--------------------------------------- Iteration      2(   2)  ---------------------------------------


    POTLOK:  cpu time    0.1372: real time    0.1372
    SETDIJ:  cpu time    0.0015: real time    0.0015
    EDDIAG:  cpu time    0.0372: real time    0.0372
  RMM-DIIS:  cpu time    0.1603: real time    0.1603
    ORTHCH:  cpu time    0.0016: real time    0.0016
       DOS:  cpu time    0.0002: real time    0.0002
    CHARGE:  cpu time    0.0182: real time    0.0182
    MIXING:  cpu time    0.0043: real time    0.0043
    --------------------------------------------
      LOOP:  cpu time    0.3604: real time    0.3605

 eigenvalue-minimisations  :    64
 total energy-change (2. order) : 0.1013697E-05  (-0.2704051E-05)
 number of electron       8.0000000 magnetization 
 augmentation part        0.1844162 magnetization 

 Broyden mixing:
  rms(total) = 0.85112E-03    rms(broyden)= 0.85087E-03
  rms(prec ) = 0.99160E-03
  weight for this iteration     100.00

 eigenvalues of (default mixing * dielectric matrix)
  average eigenvalue GAMMA=   1.9365
  1.9365

 Free energy of the ion-electron system (eV)
  ---------------------------------------------------
  alpha Z        PSCENC =         0.23938281
  Ewald energy   TEWEN  =       128.50493412
  -Hartree energ DENC   =      -284.35594751
  -exchange      EXHF   =         0.00000000
  -V(xc)+E(xc)   XCENC  =        24.70721795
  PAW double counting   =       462.31253873     -463.09735162
  entropy T*S    EENTRO =        -0.00000000
  eigenvalues    EBANDS =       -89.37120873
  atomic energy  EATOM  =       197.04175453
  Solvation  Ediel_sol  =         0.00000000
  ---------------------------------------------------
  free energy    TOTEN  =       -24.01867972 eV

  energy without entropy =      -24.01867972  energy(sigma->0) =      -24.01867972


--------------------------------------------------------------------------------------------------------




--------------------------------------- Iteration      2(   3)  ---------------------------------------


    POTLOK:  cpu time    0.1365: real time    0.1365
    SETDIJ:  cpu time    0.0014: real time    0.0014
    EDDIAG:  cpu time    0.0369: real time    0.0369
  RMM-DIIS:  cpu time    0.1571: real time    0.1571
    ORTHCH:  cpu time    0.0015: real time    0.0015
       DOS:  cpu time    0.0002: real time    0.0002
    CHARGE:  cpu time    0.0181: real time    0.0181
    MIXING:  cpu time    0.0044: real time    0.0044
    --------------------------------------------
      LOOP:  cpu time    0.3561: real time    0.3562

 eigenvalue-minimisations  :    64
 total energy-change (2. order) : 0.6002347E-07  (-0.5517809E-06)
 number of electron       8.0000000 magnetization 
 augmentation part        0.1844034 magnetization 

 Broyden mixing:
  rms(total) = 0.22419E-03    rms(broyden)= 0.22403E-03
  rms(prec ) = 0.27120E-03
  weight for this iteration     100.00

 eigenvalues of (default mixing * dielectric matrix)
  average eigenvalue GAMMA=   1.6166
  1.1774  2.0557

 Free energy of the ion-electron system (eV)
  ---------------------------------------------------
  alpha Z        PSCENC =         0.23938281
  Ewald energy   TEWEN  =       128.50493412
  -Hartree energ DENC   =      -284.36354600
  -exchange      EXHF   =         0.00000000
  -V(xc)+E(xc)   XCENC  =        24.70764181
  PAW double counting   =       462.45090291     -463.23580782
  entropy T*S    EENTRO =        -0.00000000
  eigenvalues    EBANDS =       -89.36394202
  atomic energy  EATOM  =       197.04175453
  Solvation  Ediel_sol  =         0.00000000
  ---------------------------------------------------
  free energy    TOTEN  =       -24.01867966 eV

  energy without entropy =      -24.01867966  energy(sigma->0) =      -24.01867966


--------------------------------------------------------------------------------------------------------




--------------------------------------- Iteration      2(   4)  ---------------------------------------


    POTLOK:  cpu time    0.1372: real time    0.1372
    SETDIJ:  cpu time    0.0015: real time    0.0015
    EDDIAG:  cpu time    0.0367: real time    0.0367
  RMM-DIIS:  cpu time    0.1262: real time    0.1263
    ORTHCH:  cpu time    0.0014: real time    0.0014
       DOS:  cpu time    0.0002: real time    0.0002
    --------------------------------------------
      LOOP:  cpu time    0.3031: real time    0.3032

 eigenvalue-minimisations  :    48
 total energy-change (2. order) : 0.4633876E-07  (-0.1845580E-07)
 number of electron       8.0000000 magnetization 
 augmentation part        0.1844034 magnetization 

 Free energy of the ion-electron system (eV)
  ---------------------------------------------------
  alpha Z        PSCENC =         0.23938281
  Ewald energy   TEWEN  =       128.50493412
  -Hartree energ DENC   =      -284.36112134
  -exchange      EXHF   =         0.00000000
  -V(xc)+E(xc)   XCENC  =        24.70754081
  PAW double counting   =       462.47215132     -463.25702338
  entropy T*S    EENTRO =        -0.00000000
  eigenvalues    EBANDS =       -89.36629849
  atomic energy  EATOM  =       197.04175453
  Solvation  Ediel_sol  =         0.00000000
  ---------------------------------------------------
  free energy    TOTEN  =       -24.01867961 eV

  energy without entropy =      -24.01867961  energy(sigma->0) =      -24.01867961


--------------------------------------------------------------------------------------------------------




 average (electrostatic) potential at core
  the test charge radii are     0.5201  0.6991
  (the norm of the test charge is              1.0000)
       1 -41.4068       2 -41.4832       3 -41.5539       4 -41.4573       5 -57.9816
 
 
 
 E-fermi :  -8.2225     XC(G=0):  -0.6986     alpha+bet : -0.2082


 k-point     1 :       0.2500    0.2500    0.2500
  band No.  band energies     occupation 
      1     -16.8608      2.00000
      2      -9.4372      2.00000
      3      -9.1949      2.00000
      4      -9.1901      2.00000
      5      -0.3266      0.00000
      6       0.5649      0.00000
      7       0.6767      0.00000
      8       0.7031      0.00000

 k-point     2 :      -0.2500    0.2500    0.2500
  band No.  band energies     occupation 
      1     -16.8608      2.00000
      2      -9.4372      2.00000
      3      -9.1951      2.00000
      4      -9.1900      2.00000
      5      -0.3213      0.00000
      6       0.5478      0.00000
      7       0.6520      0.00000
      8       0.7008      0.00000

 k-point     3 :       0.2500   -0.2500    0.2500
  band No.  band energies     occupation 
      1     -16.8608      2.00000
      2      -9.4372      2.00000
      3      -9.1950      2.00000
      4      -9.1901      2.00000
      5      -0.3213      0.00000
      6       0.5492      0.00000
      7       0.6596      0.00000
      8       0.6934      0.00000

 k-point     4 :      -0.2500   -0.2500    0.2500
  band No.  band energies     occupation 
      1     -16.8609      2.00000
      2      -9.4372      2.00000
      3      -9.1950      2.00000
      4      -9.1901      2.00000
      5      -0.3166      0.00000
      6       0.5418      0.00000
      7       0.6490      0.00000
      8       0.6806      0.00000


--------------------------------------------------------------------------------------------------------


 soft charge-density along one line, spin component           1
         0         1         2         3         4         5         6         7         8         9
 total charge-density along one line
 
 pseudopotential strength for first ion, spin component:           1
 -2.340  -4.032  -0.001  -0.001   0.001
 -4.032  -6.862  -0.003  -0.004   0.002
 -0.001  -0.003  -0.338   0.002  -0.001
 -0.001  -0.004   0.002  -0.337  -0.001
  0.001   0.002  -0.001  -0.001  -0.339
 total augmentation occupancy for first ion, spin component:           1
  3.496  -0.631   0.232   0.322  -0.122
 -0.631   0.127  -0.043  -0.060   0.023
  0.232  -0.043   0.021   0.018  -0.007
  0.322  -0.060   0.018   0.033  -0.009
 -0.122   0.023  -0.007  -0.009   0.012


------------------------ aborting loop because EDIFF is reached ----------------------------------------


    CHARGE:  cpu time    0.0180: real time    0.0180
    FORLOC:  cpu time    0.0110: real time    0.0110
    FORNL :  cpu time    0.0173: real time    0.0173
    STRESS:  cpu time    0.1397: real time    0.1397
    FORCOR:  cpu time    0.1324: real time    0.1324
    FORHAR:  cpu time    0.0428: real time    0.0428
    MIXING:  cpu time    0.0059: real time    0.0059
    OFIELD:  cpu time    0.0000: real time    0.0000

  FORCE on cell =-STRESS in cart. coord.  units (eV):
  Direction    XX          YY          ZZ          XY          YZ          ZX
  --------------------------------------------------------------------------------------
  Alpha Z     0.23938     0.23938     0.23938
  Ewald      43.32577    43.51544    41.66369     1.18421     2.02344     2.70765
  Hartree    95.03070    96.17335    93.15489     0.19575     0.88656     0.97357
  E(xc)     -27.17337   -27.18270   -27.16452     0.00356     0.01085     0.01214
  Local    -197.07314  -198.60787  -193.59555    -1.06413    -2.67812    -3.24414
  n-local   -15.82697   -15.84721   -15.78403    -0.02606     0.02119    -0.00217
  augment     0.11662     0.11771     0.11800    -0.00284    -0.00125    -0.00311
  Kinetic   100.90582   101.38851   100.46135    -0.14779    -0.55188    -0.58217
  Fock        0.00000     0.00000     0.00000     0.00000     0.00000     0.00000
  -------------------------------------------------------------------------------------
  Total      -0.45518    -0.20339    -0.90679     0.14270    -0.28921    -0.13822
  in kB      -0.72065    -0.32202    -1.43563     0.22592    -0.45788    -0.21883
  external pressure =       -0.83 kB  Pullay stress =        0.00 kB

  kinetic pressure (ideal gas correction) =      0.00 kB
  total pressure  =     -0.83 kB
  Total+kin.    -0.721      -0.321      -1.435       0.226      -0.458      -0.219

 VOLUME and BASIS-vectors are now :
 -----------------------------------------------------------------------------
  energy-cutoff  :      400.00
[...]
 -----------------------------------------------------------------------------------------------
   -.186E-01 -.434E+00 -.137E+00   0.416E-16 0.355E-14 0.000E+00   0.179E-01 0.433E+00 0.137E+00   0.241E-03 0.436E-03 0.575E-03
 
 
 POSITION                                       TOTAL-FORCE (eV/Angst)
 -----------------------------------------------------------------------------------
      5.50358      4.13436      3.70675         0.153902     -0.203003     -0.255928
      4.08727      4.87122      4.48753        -0.048683      0.023923      0.037735
      5.66544      5.73034      4.50551        -0.127707     -0.203881     -0.049250
      5.44140      4.25939      5.48748        -0.001274     -0.120547      0.101043
      5.17354      4.74164      4.54429         0.023293      0.502717      0.166055
 -----------------------------------------------------------------------------------
    total drift:                               -0.000468     -0.000791     -0.000345


--------------------------------------------------------------------------------------------------------



  FREE ENERGIE OF THE ION-ELECTRON SYSTEM (eV)
  ---------------------------------------------------
  free  energy   TOTEN  =       -24.02541554 eV

  energy  without entropy=      -24.02541554  energy(sigma->0) =      -24.02541554
 
 d Force =-0.7990866E-03[-0.116E-02,-0.442E-03]  d Energy =-0.7980266E-03-0.106E-05
 d Force =-0.1728579E+00[-0.173E+00,-0.173E+00]  d Ewald  =-0.1728580E+00 0.112E-06


--------------------------------------------------------------------------------------------------------


    POTLOK:  cpu time    0.1353: real time    0.1353


--------------------------------------------------------------------------------------------------------


           RANDOM_SEED =         172209738               30                0
   IONSTEP:  cpu time    0.0001: real time    0.0001

  ENERGY OF THE ELECTRON-ION-THERMOSTAT SYSTEM (eV)
  ---------------------------------------------------
% ion-electron   TOTEN  =       -24.025416  see above
  kinetic energy EKIN   =         0.007884
  kin. lattice  EKIN_LAT=         0.000000  (temperature   15.25 K)
  nose potential ES     =         0.000000
  nose kinetic   EPS    =         0.000000
  ---------------------------------------------------
  total energy   ETOTAL =       -24.017532 eV

  maximum distance moved by ions :      0.35E-03

    WAVPRE:  cpu time    0.0442: real time    0.0442
    FEWALD:  cpu time    0.0003: real time    0.0003
    ORTHCH:  cpu time    0.0080: real time    0.0080
 Prediction of Wavefunctions ALPHA= 2.184 BETA=-1.220
     LOOP+:  cpu time    1.8227: real time    1.8229


--------------------------------------- Iteration     10(   1)  ---------------------------------------


    POTLOK:  cpu time    0.1321: real time    0.1321
    SETDIJ:  cpu time    0.0014: real time    0.0014
     EDDAV:  cpu time    0.1548: real time    0.1548
       DOS:  cpu time    0.0002: real time    0.0002
    CHARGE:  cpu time    0.0176: real time    0.0176
    MIXING:  cpu time    0.0041: real time    0.0041
    --------------------------------------------
      LOOP:  cpu time    0.3103: real time    0.3103

 eigenvalue-minimisations  :    64
 total energy-change (2. order) : 0.8113910E-03  (-0.1231916E-04)
 number of electron       8.0000000 magnetization 
 augmentation part        0.1860160 magnetization 

 Broyden mixing:
  rms(total) = 0.69083E-04    rms(broyden)= 0.68948E-04
  rms(prec ) = 0.78281E-04
  weight for this iteration     100.00

 Free energy of the ion-electron system (eV)
  ---------------------------------------------------
  alpha Z        PSCENC =         0.23938281
  Ewald energy   TEWEN  =       129.86905616
  -Hartree energ DENC   =      -285.56426727
  -exchange      EXHF   =         0.00000000
  -V(xc)+E(xc)   XCENC  =        24.77143925
  PAW double counting   =       470.76315620     -471.55283604
  entropy T*S    EENTRO =        -0.00000000
  eigenvalues    EBANDS =       -89.59228962
  atomic energy  EATOM  =       197.04175453
  Solvation  Ediel_sol  =         0.00000000
  ---------------------------------------------------
  free energy    TOTEN  =       -24.02460398 eV

  energy without entropy =      -24.02460398  energy(sigma->0) =      -24.02460398


--------------------------------------------------------------------------------------------------------




--------------------------------------- Iteration     10(   2)  ---------------------------------------


    POTLOK:  cpu time    0.1305: real time    0.1306
    SETDIJ:  cpu time    0.0015: real time    0.0015
    EDDIAG:  cpu time    0.0363: real time    0.0363
  RMM-DIIS:  cpu time    0.1453: real time    0.1453
    ORTHCH:  cpu time    0.0015: real time    0.0015
       DOS:  cpu time    0.0002: real time    0.0002
    CHARGE:  cpu time    0.0180: real time    0.0180
    MIXING:  cpu time    0.0043: real time    0.0043
    --------------------------------------------
      LOOP:  cpu time    0.3377: real time    0.3377

 eigenvalue-minimisations  :    52
 total energy-change (2. order) :-0.4921699E-06  (-0.2069379E-06)
 number of electron       8.0000000 magnetization 
 augmentation part        0.1860183 magnetization 

 Broyden mixing:
  rms(total) = 0.47919E-04    rms(broyden)= 0.47762E-04
  rms(prec ) = 0.63737E-04
  weight for this iteration     100.00

 eigenvalues of (default mixing * dielectric matrix)
  average eigenvalue GAMMA=   0.6601
  0.6601

 Free energy of the ion-electron system (eV)
  ---------------------------------------------------
  alpha Z        PSCENC =         0.23938281
  Ewald energy   TEWEN  =       129.86905616
  -Hartree energ DENC   =      -285.56440924
  -exchange      EXHF   =         0.00000000
  -V(xc)+E(xc)   XCENC  =        24.77143763
  PAW double counting   =       470.76629471     -471.55596627
  entropy T*S    EENTRO =        -0.00000000
  eigenvalues    EBANDS =       -89.59215481
  atomic energy  EATOM  =       197.04175453
  Solvation  Ediel_sol  =         0.00000000
  ---------------------------------------------------
  free energy    TOTEN  =       -24.02460447 eV

  energy without entropy =      -24.02460447  energy(sigma->0) =      -24.02460447


--------------------------------------------------------------------------------------------------------




--------------------------------------- Iteration     10(   3)  ---------------------------------------


    POTLOK:  cpu time    0.1317: real time    0.1317
    SETDIJ:  cpu time    0.0015: real time    0.0015
    EDDIAG:  cpu time    0.0362: real time    0.0362
  RMM-DIIS:  cpu time    0.1210: real time    0.1210
    ORTHCH:  cpu time    0.0015: real time    0.0015
       DOS:  cpu time    0.0002: real time    0.0002
    CHARGE:  cpu time    0.0181: real time    0.0181
    MIXING:  cpu time    0.0044: real time    0.0044
    --------------------------------------------
      LOOP:  cpu time    0.3146: real time    0.3146

 eigenvalue-minimisations  :    44
 total energy-change (2. order) :-0.1620253E-06  (-0.1540126E-07)
 number of electron       8.0000000 magnetization 
 augmentation part        0.1860185 magnetization 

 Broyden mixing:
  rms(total) = 0.43968E-04    rms(broyden)= 0.43953E-04
  rms(prec ) = 0.57413E-04
  weight for this iteration     100.00

 eigenvalues of (default mixing * dielectric matrix)
  average eigenvalue GAMMA=   1.1789
  1.1789  1.1789

 Free energy of the ion-electron system (eV)
  ---------------------------------------------------
  alpha Z        PSCENC =         0.23938281
  Ewald energy   TEWEN  =       129.86905616
  -Hartree energ DENC   =      -285.56438022
  -exchange      EXHF   =         0.00000000
  -V(xc)+E(xc)   XCENC  =        24.77143850
  PAW double counting   =       470.76222773     -471.55189725
  entropy T*S    EENTRO =        -0.00000000
  eigenvalues    EBANDS =       -89.59218691
  atomic energy  EATOM  =       197.04175453
  Solvation  Ediel_sol  =         0.00000000
  ---------------------------------------------------
  free energy    TOTEN  =       -24.02460464 eV

  energy without entropy =      -24.02460464  energy(sigma->0) =      -24.02460464


--------------------------------------------------------------------------------------------------------




--------------------------------------- Iteration     10(   4)  ---------------------------------------


    POTLOK:  cpu time    0.1318: real time    0.1318
    SETDIJ:  cpu time    0.0015: real time    0.0015
    EDDIAG:  cpu time    0.0362: real time    0.0362
  RMM-DIIS:  cpu time    0.1212: real time    0.1212
    ORTHCH:  cpu time    0.0015: real time    0.0015
       DOS:  cpu time    0.0002: real time    0.0002
    --------------------------------------------
      LOOP:  cpu time    0.2922: real time    0.2922

 eigenvalue-minimisations  :    41
 total energy-change (2. order) :-0.3411992E-06  (-0.3737829E-08)
 number of electron       8.0000000 magnetization 
 augmentation part        0.1860185 magnetization 

 Free energy of the ion-electron system (eV)
  ---------------------------------------------------
  alpha Z        PSCENC =         0.23938281
  Ewald energy   TEWEN  =       129.86905616
  -Hartree energ DENC   =      -285.56412905
  -exchange      EXHF   =         0.00000000
  -V(xc)+E(xc)   XCENC  =        24.77143576
  PAW double counting   =       470.74800125     -471.53766599
  entropy T*S    EENTRO =        -0.00000000
  eigenvalues    EBANDS =       -89.59244046
  atomic energy  EATOM  =       197.04175453
  Solvation  Ediel_sol  =         0.00000000
  ---------------------------------------------------
  free energy    TOTEN  =       -24.02460498 eV

  energy without entropy =      -24.02460498  energy(sigma->0) =      -24.02460498


--------------------------------------------------------------------------------------------------------




 average (electrostatic) potential at core
  the test charge radii are     0.5201  0.6991
  (the norm of the test charge is              1.0000)
       1 -41.5976       2 -41.5024       3 -41.4127       4 -41.5293       5 -57.9460
 
 
 
 E-fermi :  -8.3130     XC(G=0):  -0.6864     alpha+bet : -0.2082


 k-point     1 :       0.2500    0.2500    0.2500
  band No.  band energies     occupation 
      1     -16.9037      2.00000
      2      -9.3586      2.00000
      3      -9.3014      2.00000
      4      -9.2324      2.00000
      5      -0.3150      0.00000
      6       0.5796      0.00000
      7       0.6850      0.00000
      8       0.7078      0.00000

 k-point     2 :      -0.2500    0.2500    0.2500
  band No.  band energies     occupation 
      1     -16.9037      2.00000
      2      -9.3586      2.00000
      3      -9.3016      2.00000
      4      -9.2323      2.00000
      5      -0.3101      0.00000
      6       0.5600      0.00000
      7       0.6639      0.00000
      8       0.7098      0.00000

 k-point     3 :       0.2500   -0.2500    0.2500
  band No.  band energies     occupation 
      1     -16.9037      2.00000
      2      -9.3586      2.00000
      3      -9.3016      2.00000
      4      -9.2324      2.00000
      5      -0.3098      0.00000
      6       0.5615      0.00000
      7       0.6690      0.00000
      8       0.7027      0.00000

 k-point     4 :      -0.2500   -0.2500    0.2500
  band No.  band energies     occupation 
      1     -16.9037      2.00000
      2      -9.3586      2.00000
      3      -9.3016      2.00000
      4      -9.2324      2.00000
      5      -0.3047      0.00000
      6       0.5479      0.00000
      7       0.6655      0.00000
      8       0.6870      0.00000


--------------------------------------------------------------------------------------------------------


 soft charge-density along one line, spin component           1
         0         1         2         3         4         5         6         7         8         9
 total charge-density along one line
 
 pseudopotential strength for first ion, spin component:           1
 -2.342  -4.036  -0.001  -0.001   0.001
 -4.036  -6.868  -0.003  -0.004   0.002
 -0.001  -0.003  -0.336   0.002  -0.001
 -0.001  -0.004   0.002  -0.335  -0.001
  0.001   0.002  -0.001  -0.001  -0.338
 total augmentation occupancy for first ion, spin component:           1
  3.594  -0.645   0.250   0.344  -0.136
 -0.645   0.130  -0.046  -0.063   0.025
  0.250  -0.046   0.024   0.020  -0.008
  0.344  -0.063   0.020   0.037  -0.011
 -0.136   0.025  -0.008  -0.011   0.014


------------------------ aborting loop because EDIFF is reached ----------------------------------------


    CHARGE:  cpu time    0.0178: real time    0.0178
    FORLOC:  cpu time    0.0110: real time    0.0110
    FORNL :  cpu time    0.0173: real time    0.0173
    STRESS:  cpu time    0.1395: real time    0.1395
    FORCOR:  cpu time    0.1324: real time    0.1325
    FORHAR:  cpu time    0.0425: real time    0.0425
    MIXING:  cpu time    0.0049: real time    0.0050
    OFIELD:  cpu time    0.0000: real time    0.0000

  FORCE on cell =-STRESS in cart. coord.  units (eV):
  Direction    XX          YY          ZZ          XY          YZ          ZX
  --------------------------------------------------------------------------------------
  Alpha Z     0.23938     0.23938     0.23938
  Ewald      43.46590    44.53393    41.86921    -0.23198     1.01738     0.73867
  Hartree    95.46711    97.04532    93.05166     0.12407     0.41453     0.50869
  E(xc)     -27.24207   -27.24363   -27.24251     0.00209     0.00161     0.00296
  Local    -197.71696  -200.54374  -193.35402    -0.06488    -1.23363    -1.21781
  n-local   -15.95488   -15.94339   -15.99037     0.02354    -0.01275     0.00741
  augment     0.11526     0.11686     0.11150     0.00188    -0.00186     0.00003
  Kinetic   101.29697   101.37469   101.32052    -0.10129    -0.07940    -0.14321
  Fock        0.00000     0.00000     0.00000     0.00000     0.00000     0.00000
  -------------------------------------------------------------------------------------
  Total      -0.32928    -0.42057     0.00538    -0.24657     0.10588    -0.10325
  in kB      -0.52132    -0.66585     0.00851    -0.39038     0.16763    -0.16346
  external pressure =       -0.39 kB  Pullay stress =        0.00 kB

  kinetic pressure (ideal gas correction) =      0.01 kB
  total pressure  =     -0.38 kB
  Total+kin.    -0.517      -0.660       0.022      -0.387       0.170      -0.158

 VOLUME and BASIS-vectors are now :
 -----------------------------------------------------------------------------
  energy-cutoff  :      400.00
  volume of cell :     1011.98
      direct lattice vectors                 reciprocal lattice vectors
    10.023600368  0.000000000  0.000000000     0.099764552 -0.000104558 -0.002708928
     0.010366290  9.891018374  0.000000000     0.000000000  0.101101824 -0.002735319
     0.277448264  0.276157253 10.207220319     0.000000000  0.000000000  0.097969865

  length of vectors
    10.023600368  9.891023806 10.214724030     0.099801378  0.101138820  0.097969865


 FORCES acting on ions
    electron-ion (+dipol)            ewald-force                    non-local-force                 convergence-correction
 -----------------------------------------------------------------------------------------------
   -.163E+02 0.299E+02 0.412E+02   0.182E+02 -.333E+02 -.459E+02   -.174E+01 0.318E+01 0.439E+01   -.290E-04 0.131E-04 -.186E-05
   0.525E+02 -.628E+01 0.266E+01   -.580E+02 0.695E+01 -.292E+01   0.547E+01 -.656E+00 0.281E+00   -.239E-05 -.335E-04 -.578E-04
   -.233E+02 -.469E+02 0.200E+01   0.256E+02 0.515E+02 -.221E+01   -.238E+01 -.479E+01 0.193E+00   -.684E-05 -.329E-05 -.740E-04
   -.129E+02 0.236E+02 -.458E+02   0.143E+02 -.262E+02 0.508E+02   -.136E+01 0.246E+01 -.481E+01   -.214E-04 -.651E-04 -.295E-04
   0.699E-01 -.797E+00 -.202E+00   -.722E-01 0.106E+01 0.288E+00   0.221E-01 0.310E+00 0.104E+00   -.132E-03 -.262E-03 -.510E-03
 -----------------------------------------------------------------------------------------------
   -.168E-01 -.507E+00 -.159E+00   0.359E-14 0.711E-14 0.711E-14   0.169E-01 0.508E+00 0.160E+00   -.192E-03 -.351E-03 -.673E-03
 
 
 POSITION                                       TOTAL-FORCE (eV/Angst)
 -----------------------------------------------------------------------------------
      5.50504      4.13528      3.70935         0.158881     -0.242451     -0.321104
      4.08764      4.87182      4.48940        -0.060289      0.019377      0.021296
      5.66507      5.73177      4.50277        -0.137598     -0.242412     -0.024674
      5.43954      4.25691      5.48571         0.019259     -0.110322      0.135013
      5.17358      4.74160      4.54429         0.019669      0.575663      0.190053
 -----------------------------------------------------------------------------------
    total drift:                               -0.000078     -0.000145      0.000584


--------------------------------------------------------------------------------------------------------



  FREE ENERGIE OF THE ION-ELECTRON SYSTEM (eV)
  ---------------------------------------------------
  free  energy   TOTEN  =       -24.02460498 eV

  energy  without entropy=      -24.02460498  energy(sigma->0) =      -24.02460498
 
 d Force =-0.8107429E-03[-0.105E-02,-0.569E-03]  d Energy =-0.8105629E-03-0.180E-06
 d Force =-0.1275132E+00[-0.127E+00,-0.128E+00]  d Ewald  =-0.1275136E+00 0.418E-06


--------------------------------------------------------------------------------------------------------


    POTLOK:  cpu time    0.1357: real time    0.1357


--------------------------------------------------------------------------------------------------------


           RANDOM_SEED =         172209738               30                0
   IONSTEP:  cpu time    0.0001: real time    0.0001

  ENERGY OF THE ELECTRON-ION-THERMOSTAT SYSTEM (eV)
  ---------------------------------------------------
% ion-electron   TOTEN  =       -24.024605  see above
  kinetic energy EKIN   =         0.007100
  kin. lattice  EKIN_LAT=         0.000000  (temperature   13.73 K)
  nose potential ES     =         0.000000
  nose kinetic   EPS    =         0.000000
  ---------------------------------------------------
  total energy   ETOTAL =       -24.017505 eV

  maximum distance moved by ions :      0.36E-03


 mean value of Nose-termostat <S>:     1.000 mean value of <T> :    11.203
 mean temperature <T/S>/<1/S>  :    11.203

    WAVPRE:  cpu time    0.0473: real time    0.0473
    FEWALD:  cpu time    0.0003: real time    0.0003
    ORTHCH:  cpu time    0.0081: real time    0.0081
 Prediction of Wavefunctions ALPHA= 2.106 BETA=-1.133
    POTLOK:  cpu time    0.1357: real time    0.1357
    EDDIAG:  cpu time    0.0372: real time    0.0372
     LOOP+:  cpu time    1.9888: real time    1.9890
    4ORBIT:  cpu time    0.0000: real time    0.0005

 total amount of memory used by VASP MPI-rank0    56599. kBytes
=======================================================================

   base      :      30000. kBytes
   nonl-proj :       2720. kBytes
   fftplans  :       8576. kBytes
   grid      :      13527. kBytes
   one-center:          6. kBytes
   wavefun   :       1770. kBytes
 
  
  
 General timing and accounting informations for this job:
 ========================================================
  
                  Total CPU time used (sec):       26.921
                            User time (sec):       25.550
                          System time (sec):        1.371
                         Elapsed time (sec):       27.437
  
                   Maximum memory used (kb):      174652.
                   Average memory used (kb):           0.
  
                          Minor page faults:       266308
                          Major page faults:          133
                 Voluntary context switches:          481
