Water                                   
  0.529180000000000     
    15.000000    0.000000    0.000000
     0.000000   15.000000    0.000000
     0.000000    0.000000   15.000000
   O    H 
     1     2
Direct
  0.000000  0.000000  0.000000
  0.075268  0.903515  0.000000
  0.075104  0.096614  0.000000
 
   48   48   48
 0.38476138045E+04 0.32624658536E+04 0.23803112244E+04 0.14445751597E+04 0.74557219955E+03
 0.35376862189E+03 0.17001373416E+03 0.91531746010E+02 0.50835216747E+02 0.23850157982E+02
 0.11952181403E+02 0.65771071183E+01 0.29761272902E+01 0.26609566953E+01 0.66040904264E+00
 0.16211718182E+00 0.10679313005E+01 -.43615277485E+00 0.20270714918E+00 0.49685146880E+00
 -.69085684317E+00 0.53998501537E+00 0.34466520323E-01 -.55340291912E+00 0.73186020467E+00
 -.40863488571E+00 -.18550832210E+00 0.68453662220E+00 -.71007169460E+00 0.29762839093E+00
 0.37880086028E+00 -.73575174283E+00 0.88117768981E+00 0.64177751409E-01 -.24921639901E+00
 0.17372493082E+01 0.99988063986E+00 0.30690369971E+01 0.63621270919E+01 0.11135375763E+02
 0.28840673569E+02 0.58760984902E+02 0.12126907409E+03 0.29030571716E+03 0.71312303312E+03
 0.16169678424E+04 0.28975517751E+04 0.38023348518E+04 0.34597640114E+04 0.30008821101E+04
 0.22455872540E+04 0.14105413548E+04 0.75815316129E+03 0.36815437205E+03 0.17825758104E+03
 0.94297249651E+02 0.51064888506E+02 0.23986165881E+02 0.12041485886E+02 0.66333574749E+01
 0.30806392621E+01 0.25195458471E+01 0.68793185210E+00 0.21032244996E+00 0.95791280793E+00
 -.35211169236E+00 0.17561534082E+00 0.43914343419E+00 -.58436651801E+00 0.45655767295E+00
 0.35692888474E-01 -.47242517684E+00 0.62938347572E+00 -.34792175368E+00 -.16856251380E+00
 0.59640366914E+00 -.60142244335E+00 0.24605551619E+00 0.33171108617E+00 -.62612220453E+00
 0.77480936052E+00 0.84648956711E-01 -.19915616237E+00 0.15843679457E+01 0.10607728208E+01
 0.29709733183E+01 0.60649168189E+01 0.10677610011E+02 0.27304881132E+02 0.55692976831E+02
 0.11310966189E+03 0.26318460894E+03 0.63281970043E+03 0.14063287072E+04 0.25203483071E+04
 0.33514425122E+04 0.25182854402E+04 0.23423350910E+04 0.19021552379E+04 0.13252400452E+04
 0.79059047618E+03 0.41020410285E+03 0.20321322083E+03 0.10253223321E+03 0.51714553534E+02
 0.24157471760E+02 0.12168114438E+02 0.67070751009E+01 0.32712303567E+01 0.21745027841E+01
 0.74173556093E+00 0.31108110895E+00 0.70560581092E+00 -.14874808727E+00 0.11823409298E+00
 0.29623638357E+00 -.34280405910E+00 0.27433575233E+00 0.38144377760E-01 -.29356405843E+00
 0.38840451191E+00 -.20312710098E+00 -.12081935397E+00 0.38200155136E+00 -.35907947105E+00
 0.13825519656E+00 0.22551680903E+00 -.37664477196E+00 0.52218451208E+00 0.13523394145E+00
 -.64404141155E-01 0.12056794055E+01 0.11539810494E+01 0.27135209913E+01 0.52956026435E+01
 0.93797905374E+01 0.23105489250E+02 0.47441085573E+02 0.92806561497E+02 0.19953930595E+03
 0.45080876029E+03 0.94594551040E+03 0.16771938728E+04 0.23045538533E+04 0.15062968910E+04
 0.15757495440E+04 0.14766715426E+04 0.12172877470E+04 0.83863849774E+03 0.47366507248E+03
 0.23568273776E+03 0.11209511329E+03 0.51640853127E+02 0.23751781642E+02 0.12077660504E+02
 0.66413374827E+01 0.33204243177E+01 0.17864542719E+01 0.77330847025E+00 0.40625466256E+00
 0.46994854070E+00 0.43295717895E-01 0.73441877562E-01 0.15517346038E+00 -.11760452042E+00
 0.10910993220E+00 0.32373874023E-01 -.12345971735E+00 0.15997067580E+00 -.70564278182E-01
 -.64633009907E-01 0.16841592920E+00 -.13557101401E+00 0.47490956506E-01 0.11496718045E+00
 -.13508341342E+00 0.28073909358E+00 0.17247434888E+00 0.82135956524E-01 0.79370701068E+00
 0.11434191780E+01 0.23567866495E+01 0.43112386492E+01 0.75564396994E+01 0.17448037647E+02
 0.36263577069E+02 0.68643188606E+02 0.13291630809E+03 0.26943616859E+03 0.52653641673E+03
 0.89477043222E+03 0.12673467835E+04 0.78650223562E+03 0.94887671755E+03 0.10666960554E+04
 0.10641672682E+04 0.85645069551E+03 0.52036208128E+03 0.25112758145E+03 0.11238190164E+03
 0.48500686302E+02 0.22315592699E+02 0.11646113599E+02 0.63364439635E+01 0.31208830554E+01
 0.14873992182E+01 0.76200573444E+00 0.45834284792E+00 0.33512391698E+00 0.12968045841E+00
 0.60588353014E-01 0.72056732218E-01 -.17475970380E-02 0.29503995068E-01 0.17077384244E-01
 -.26701789324E-01 0.40347533292E-01 -.84756233552E-02 -.21193004901E-01 0.44002048208E-01
 -.21595185841E-01 0.11483268220E-01 0.41092321711E-01 -.97734262995E-03 0.14426634592E+00
 0.17007216363E+00 0.17363098520E+00 0.49561395791E+00 0.97761753001E+00 0.19528238796E+01
 0.33785826244E+01 0.57057964747E+01 0.11903380239E+02 0.24766526847E+02 0.46549702763E+02
 0.82737912771E+02 0.14704274855E+03 0.25988899360E+03 0.42266809834E+03 0.60595411477E+03
 0.38213061584E+03 0.52044737004E+03 0.68819100925E+03 0.80448276403E+03 0.71656116162E+03
 0.45379185336E+03 0.21788577255E+03 0.95448037469E+02 0.41067038812E+02 0.19761488732E+02
 0.10733228943E+02 0.56885288856E+01 0.26887194741E+01 0.12779619880E+01 0.71458713233E+00
 0.45810373688E+00 0.26787293127E+00 0.11498954849E+00 0.67185976526E-01 0.44103966140E-01
 0.20465509892E-01 0.19354551631E-01 0.20625622453E-02 0.37576150015E-02 0.14318789661E-01
 -.36504781478E-02 0.14238861059E-02 0.71171371131E-02 0.77337898778E-03 0.13769720754E-01
 0.11333912096E-01 0.28909178397E-01 0.92034617921E-01 0.13809654235E+00 0.19497742895E+00
 0.33291258677E+00 0.71601780900E+00 0.15149968048E+01 0.26095528562E+01 0.41945493269E+01
 0.76219461601E+01 0.15140322886E+02 0.28724026535E+02 0.49500740355E+02 0.80097536393E+02
 0.12607234534E+03 0.19080798166E+03 0.27420283420E+03 0.18306268498E+03 0.26663525278E+03
 0.37818112830E+03 0.47013466030E+03 0.43533865791E+03 0.28524964529E+03 0.14522060350E+03
 0.67099185477E+02 0.31179423010E+02 0.16381594108E+02 0.91542541788E+01 0.46204091918E+01
 0.21061692855E+01 0.10877408629E+01 0.64233022282E+00 0.40939024528E+00 0.20846344978E+00
 0.69991977723E-01 0.71316542586E-01 0.40187656307E-01 0.12580416341E-01 0.25578052667E-01
 -.37719525776E-02 0.63626527234E-02 0.17450877544E-01 -.10857219662E-01 0.79023677901E-02
 0.62496127874E-02 -.48717518589E-02 0.21082394313E-01 0.82451435706E-02 0.16550297226E-01
 0.63394174183E-01 0.98964665984E-01 0.17245402381E+00 0.25117076424E+00 0.46281914556E+00
 0.10492092551E+01 0.19404336095E+01 0.30791133892E+01 0.48702996249E+01 0.85597767071E+01
 0.15886742124E+02 0.27661018102E+02 0.43915697107E+02 0.65037315168E+02 0.91932168929E+02
 0.12808207580E+03 0.91976009057E+02 0.13194151620E+03 0.17995721942E+03 0.21309588439E+03
 0.19728559881E+03 0.13820163337E+03 0.79151424393E+02 0.40959160979E+02 0.21948978719E+02
 0.12610567634E+02 0.69741012552E+01 0.33137323341E+01 0.15282713837E+01 0.89736133777E+00
 0.56146537465E+00 0.33001272312E+00 0.14377362788E+00 0.48043839539E-01 0.66859208981E-01
 0.41006441149E-01 0.10925597778E-01 0.19499940915E-01 -.34502750667E-03 0.65991811174E-02
 0.13799098894E-01 -.66360176476E-02 0.72266770303E-02 0.50114860746E-02 -.37501555179E-02
 0.20084614583E-01 0.12771493818E-01 0.84984311436E-02 0.34005026191E-01 0.67188875588E-01
 0.14167408470E+00 0.20331479746E+00 0.28954085808E+00 0.62696757075E+00 0.13010814135E+01
 0.22003807767E+01 0.32473649542E+01 0.48772311598E+01 0.81341933092E+01 0.13935039310E+02
 0.22685840667E+02 0.34232447200E+02 0.48195515852E+02 0.65853030209E+02 0.45802449224E+02
 0.61371902861E+02 0.78093738488E+02 0.87121426354E+02 0.80294866206E+02 0.60515403263E+02
 0.39162445304E+02 0.23949221666E+02 0.14757195825E+02 0.88056549139E+01 0.46601271742E+01
 0.21644902066E+01 0.11063508584E+01 0.73954629868E+00 0.47816544057E+00 0.24250068358E+00
 0.92118127582E-01 0.50031258159E-01 0.61614952627E-01 0.42139072701E-01 0.13570236745E-01
 0.75745512104E-02 0.57896773172E-02 0.76639011213E-02 0.53193053712E-02 0.14547671067E-02
 0.53150511980E-02 0.61797852144E-03 0.13167893184E-02 0.15248048621E-01 0.16629721605E-01
 0.10986827437E-01 0.12994796064E-01 0.43919896091E-01 0.11594467983E+00 0.17137987813E+00
 0.20160751703E+00 0.34323111737E+00 0.74996572054E+00 0.14182307989E+01 0.21836566218E+01
 0.30404500506E+01 0.43554365549E+01 0.66772557088E+01 0.10594701570E+02 0.16523091955E+02
 0.24352201286E+02 0.33860099071E+02 0.20253674632E+02 0.26262719637E+02 0.31772122137E+02
 0.34444500796E+02 0.32553208818E+02 0.26915740585E+02 0.20131438153E+02 0.14109498142E+02
 0.92205450256E+01 0.53920662046E+01 0.27870342041E+01 0.14126118862E+01 0.86287477212E+00
 0.61254517883E+00 0.37380155448E+00 0.16170194085E+00 0.64216249623E-01 0.54814259035E-01
 0.56487418331E-01 0.38069161638E-01 0.11714202454E-01 0.23006551682E-02 0.80386952147E-02
 0.68723462629E-02 0.20184198333E-02 0.41565977259E-02 0.39208602809E-02 -.10431870693E-03
 0.23328244016E-02 0.10562764371E-01 0.17150642257E-01 0.14452173972E-01 0.64019984484E-02
 0.24090930366E-01 0.83473663545E-01 0.14181404106E+00 0.16463561447E+00 0.20914395866E+00
 0.38812575489E+00 0.77169191849E+00 0.13268651421E+01 0.19607388554E+01 0.26611638208E+01
 0.35700613140E+01 0.49566056445E+01 0.71816577774E+01 0.10512286101E+02 0.14918429543E+02
 0.10006340067E+02 0.12491284467E+02 0.14410856982E+02 0.15304161310E+02 0.14940128782E+02
 0.13374110495E+02 0.10868749254E+02 0.78755884519E+01 0.50258235844E+01 0.28818332266E+01
 0.16144137977E+01 0.10020314390E+01 0.69947382591E+00 0.46593886440E+00 0.24665338203E+00
 0.10082920671E+00 0.52232540061E-01 0.50326538604E-01 0.45207250067E-01 0.26128398637E-01
 0.72761897462E-02 0.30706160898E-02 0.71442118770E-02 0.64944411787E-02 0.37896923264E-02
 0.40431769321E-02 0.35886274078E-02 0.11809252387E-02 0.10000642526E-02 0.60133070787E-02
 0.13145439457E-01 0.13849006391E-01 0.69617339964E-02 0.10694926080E-01 0.45286207676E-01
 0.98961103318E-01 0.13863364084E+00 0.16384616859E+00 0.21939001646E+00 0.36436700227E+00
 0.65550237859E+00 0.11069329162E+01 0.16410317007E+01 0.21725726624E+01 0.27852462718E+01
 0.37467012692E+01 0.53018200020E+01 0.74687357226E+01 0.48757635766E+01 0.61386551509E+01
 0.71473114483E+01 0.76692111177E+01 0.76032510983E+01 0.68764174188E+01 0.55031515899E+01
 0.38210233611E+01 0.23774807186E+01 0.14739374394E+01 0.10146424663E+01 0.75090098974E+00
 0.51397878407E+00 0.28823085589E+00 0.13419518029E+00 0.65861985909E-01 0.46170600837E-01
 0.40081029283E-01 0.28439914542E-01 0.13275081039E-01 0.52803953973E-02 0.48261906880E-02
 0.71583634422E-02 0.69112585887E-02 0.40643584894E-02 0.38611442067E-02 0.36170608579E-02
 0.11515899756E-02 0.68631480526E-03 0.24887030525E-02 0.64355100385E-02 0.96681948443E-02
 0.73524908927E-02 0.67018268314E-02 0.18095938281E-01 0.48067239182E-01 0.96237457366E-01
 0.14030079687E+00 0.16266802923E+00 0.18600386233E+00 0.26944279425E+00 0.48817562186E+00
 0.85128559850E+00 0.12541780820E+01 0.16264319601E+01 0.20596097365E+01 0.27102116068E+01
 0.36638145794E+01 0.18790662619E+01 0.25761241787E+01 0.32473584418E+01 0.36041883923E+01
 0.35396487518E+01 0.30959147950E+01 0.24016887712E+01 0.16827283191E+01 0.11543396642E+01
 0.86773206846E+00 0.70497455498E+00 0.52182920293E+00 0.30282004506E+00 0.13857167652E+00
 0.69053885450E-01 0.52174302089E-01 0.44870153716E-01 0.30639751961E-01 0.13827941265E-01
 0.65559284607E-02 0.64763392463E-02 0.69584902623E-02 0.72954312908E-02 0.49143054091E-02
 0.22983571761E-02 0.29108905578E-02 0.25456295433E-02 0.14334502493E-02 0.17984739981E-02
 0.10498741287E-02 0.13211346262E-02 0.45947054017E-02 0.72658424960E-02 0.79519225468E-02
 0.68505425612E-02 0.12574973099E-01 0.44497270827E-01 0.97707906010E-01 0.13305025112E+00
 0.13300824766E+00 0.13563261810E+00 0.19870264231E+00 0.35341874759E+00 0.57990365552E+00
 0.81325811335E+00 0.99934794027E+00 0.11585176281E+01 0.14043572325E+01 0.16006615865E+01
 0.16503935063E+01 0.15568221629E+01 0.14183330585E+01 0.13115564998E+01 0.12147578015E+01
 0.10635398648E+01 0.86704819988E+00 0.69843808513E+00 0.58368968897E+00 0.46399629846E+00
 0.29821039913E+00 0.14220182476E+00 0.63471412587E-01 0.50167378818E-01 0.53037153556E-01
 0.43063811412E-01 0.20755440356E-01 0.60237892977E-02 0.61789012091E-02 0.91238452159E-02
 0.86583899536E-02 0.56494506760E-02 0.24451258977E-02 0.23453564427E-02 0.23701899795E-02
 0.12739338198E-02 0.25132122950E-02 0.32995295639E-02 0.14456969982E-02 -.62230037611E-04
 0.11706587934E-02 0.70496113052E-02 0.12260233539E-01 0.81679948153E-02 0.16917200289E-02
 0.11354067043E-01 0.45286728436E-01 0.85423023622E-01 0.10350905077E+00 0.10503732024E+00
 0.12168253187E+00 0.16121683639E+00 0.22440742310E+00 0.35690322135E+00 0.61938148698E+00
 0.99532635147E+00 0.13658816031E+01 0.16385458005E+00 0.31814809117E+00 0.49857848993E+00
 0.63016211972E+00 0.68270149340E+00 0.67075529820E+00 0.61161235100E+00 0.52564719407E+00
 0.43661844754E+00 0.34382130278E+00 0.23865174489E+00 0.13729180564E+00 0.68413143747E-01
 0.46096039993E-01 0.52403063582E-01 0.51533994006E-01 0.31903822917E-01 0.10834144683E-01
 0.33662552723E-02 0.74363152256E-02 0.10719421691E-01 0.75750431920E-02 0.35739162417E-02
 0.24289446811E-02 0.29013687304E-02 0.27072842188E-02 0.14006285989E-02 0.22398630783E-02
 0.38955229386E-02 0.23049869503E-02 0.12446424351E-03 0.24824974431E-03 0.50398562927E-02
 0.13575199038E-01 0.13585629713E-01 0.42073964213E-02 0.22981768460E-02 0.12912096391E-01
 0.31871316401E-01 0.54802282140E-01 0.72517313548E-01 0.89460594907E-01 0.11485573369E+00
 0.13544394024E+00 0.13763383731E+00 0.12187453672E+00 0.95342668056E-01 0.92356523417E-01
 0.75346533687E-01 0.16809964666E+00 0.27861700674E+00 0.35294922389E+00 0.37769811053E+00
 0.37290129608E+00 0.34512251572E+00 0.28930938447E+00 0.21546720333E+00 0.14391357608E+00
 0.91746035829E-01 0.61590218486E-01 0.46845654159E-01 0.45629441754E-01 0.46792480127E-01
 0.34537812234E-01 0.16240731142E-01 0.54724456477E-02 0.30206789713E-02 0.67097594458E-02
 0.88748082687E-02 0.48913508624E-02 0.22332103810E-02 0.23608656860E-02 0.20512579883E-02
 0.23570576406E-02 0.16707484646E-02 0.13948721390E-02 0.30672999102E-02 0.20178902928E-02
 0.66139278385E-04 0.35660419536E-03 0.17488800497E-02 0.70580127545E-02 0.11240972620E-01
 0.71443159618E-02 0.31232274509E-02 0.36074858421E-02 0.50863839001E-02 0.12482757110E-01
 0.28650407526E-01 0.50439829206E-01 0.73610521975E-01 0.90168784804E-01 0.96247186915E-01
 0.88104472054E-01 0.62001098069E-01 0.43071989754E-01 0.63760254587E+00 0.52799549224E+00
 0.33249237631E+00 0.18754379381E+00 0.14897431702E+00 0.16532342960E+00 0.16260735102E+00
 0.12296856864E+00 0.77049211466E-01 0.50803921409E-01 0.42291047163E-01 0.40296990994E-01
 0.39988946702E-01 0.37227830358E-01 0.27784018152E-01 0.15339907321E-01 0.69153906153E-02
 0.38271659966E-02 0.38898965209E-02 0.49152308874E-02 0.47505306699E-02 0.31557938222E-02
 0.17394153527E-02 0.13983705830E-02 0.16297694557E-02 0.14642591395E-02 0.11140439645E-02
 0.13881935326E-02 0.15046276073E-02 0.84253013922E-03 0.26695553194E-03 -.22831997168E-03
 -.40017330717E-03 0.13075924360E-02 0.40542355024E-02 0.52642292128E-02 0.50908002414E-02
 0.48665641715E-02 0.36648033571E-02 0.10540165398E-02 0.23077234349E-02 0.13544194157E-01
 0.28855313008E-01 0.40123610243E-01 0.72609933671E-01 0.18126067765E+00 0.37709135058E+00
 0.57219038700E+00 -.41062889394E+00 -.27514839148E+00 -.59738981299E-01 0.10668679557E+00
 0.15479266175E+00 0.11438889071E+00 0.60188954167E-01 0.35467459762E-01 0.34509205317E-01
 0.37099327551E-01 0.35899585076E-01 0.33301046476E-01 0.28725916902E-01 0.20060640356E-01
 0.11294805739E-01 0.65127401541E-02 0.43578546949E-02 0.38695053554E-02 0.42499634189E-02
 0.32664629179E-02 0.20525681480E-02 0.21335429475E-02 0.20268328773E-02 0.16428017880E-02
 0.14783197976E-02 0.10185570696E-02 0.92237087642E-03 0.98206318191E-03 0.39619740016E-03
 0.18626742208E-03 0.18832087452E-03 -.49519633873E-03 -.59655088903E-03 0.24903617909E-03
 0.72670934297E-03 0.13533432592E-02 0.34758070678E-02 0.60927070661E-02 0.69057030959E-02
 0.49510144919E-02 0.64287412474E-03 -.16589249544E-02 0.72059458583E-02 0.23086860626E-01
 0.93205626119E-02 -.79487962611E-01 -.23895710743E+00 -.38611896191E+00 0.17850989046E+00
 0.13991547696E+00 0.72221273797E-01 0.17192431536E-01 -.20634017299E-02 0.73903864511E-02
 0.23881827895E-01 0.34072115785E-01 0.37375704689E-01 0.35676397401E-01 0.29491157638E-01
 0.20210061601E-01 0.11272862283E-01 0.64214388623E-02 0.48906067821E-02 0.40240289907E-02
 0.42130126007E-02 0.46055017476E-02 0.34002543144E-02 0.20739176531E-02 0.14534083286E-02
 0.13504931100E-02 0.22030450566E-02 0.21648314707E-02 0.91401051549E-03 0.82110792593E-03
 0.98590981863E-03 0.38744737283E-03 0.25122571912E-03 0.78496379804E-05 -.23827065957E-03
 0.25214879497E-03 0.45051142195E-04 -.39178329389E-03 -.25475784089E-04 -.54352598255E-03
 -.81120713805E-03 0.22016620006E-02 0.64537481246E-02 0.77860552228E-02 0.61287334766E-02
 0.37467085606E-02 0.82677946514E-03 -.75297063588E-03 0.10047131129E-01 0.46644770316E-01
 0.10650946900E+00 0.16268019542E+00 0.24862694414E+00 0.18660915922E+00 0.82058055052E-01
 0.55954967733E-02 -.12590910928E-01 0.42520559476E-02 0.21220065574E-01 0.27236437506E-01
 0.27370200592E-01 0.23409368700E-01 0.15110098062E-01 0.64030923887E-02 0.21097107563E-02
 0.26949842873E-02 0.46238809738E-02 0.51945695480E-02 0.44614719855E-02 0.33450334825E-02
 0.26126117521E-02 0.20332610999E-02 0.12351889288E-02 0.11854900622E-02 0.17409619424E-02
 0.15505086886E-02 0.96346834541E-03 0.64374580023E-03 0.54717422703E-03 0.68409225154E-03
 0.39364052817E-03 -.12726150807E-03 0.83874409887E-04 0.30015911612E-03 0.22937174902E-03
 0.51428389654E-03 0.31832016786E-03 -.79852755146E-03 -.19589917438E-02 -.16230303621E-02
 0.17948093465E-02 0.56588886036E-02 0.54774339646E-02 0.25044230077E-02 -.76985937893E-03
 -.35538891071E-02 0.56117251022E-02 0.49868220436E-01 0.13539667748E+00 0.22308536074E+00
 -.48258255549E+00 -.35114560563E+00 -.13585217354E+00 0.25938365811E-01 0.70732485844E-01
 0.40008448995E-01 0.71916714643E-02 0.17592686586E-02 0.73543208734E-02 0.68773181549E-02
 0.23589247855E-02 0.65265325943E-03 0.23534367531E-02 0.48198161353E-02 0.64030324834E-02
 0.60696088050E-02 0.35560626747E-02 0.15054926352E-02 0.17157778585E-02 0.18666469135E-02
 0.11710614377E-02 0.11392824368E-02 0.10944248328E-02 0.73254914467E-03 0.77540864333E-03
 0.55700408779E-03 0.37962984816E-03 0.58971965301E-03 0.23606167177E-03 0.66950377648E-04
 0.24997790007E-03 -.37011787511E-03 -.20308998282E-03 0.12100996914E-02 0.11176976645E-02
 -.36184913026E-03 -.14044378965E-02 -.22824503529E-02 -.23513995506E-02 -.79114395998E-03
 -.48184882772E-03 -.28559506857E-02 -.11870005684E-02 0.57030866287E-02 -.12290996743E-01
 -.10470060543E+00 -.27637582421E+00 -.44302794039E+00 0.40882116467E+00 0.29851276851E+00
 0.12187110382E+00 -.10289437239E-01 -.47754141953E-01 -.24077404102E-01 0.22993622497E-02
 0.69565846642E-02 0.11518502039E-02 -.10667566191E-02 0.44100619943E-03 0.17325862584E-02
 0.35332056153E-02 0.57013956443E-02 0.53351548654E-02 0.29725275836E-02 0.15097409329E-02
 0.10766094411E-02 0.86420631194E-03 0.10572640427E-02 0.12366223537E-02 0.10037211052E-02
 0.69511367180E-03 0.37860267626E-03 0.27773514861E-03 0.56203160560E-03 0.48834024268E-03
 0.27166344203E-04 0.62743978427E-04 0.25487941122E-03 -.76699490495E-04 -.48904952309E-03
 -.62465121777E-03 -.35473500700E-03 0.20477149227E-03 -.39424140137E-04 -.94962552105E-03
 -.98789188193E-03 -.13011137362E-02 -.33188177134E-02 -.37208035615E-02 -.11809750670E-02
 -.28582248706E-02 -.90523952695E-02 0.82141879158E-02 0.90815037554E-01 0.23918857187E+00
 0.37871533292E+00 -.53032699235E-01 -.36635559125E-01 -.13220696108E-01 0.32669600235E-02
 0.74021138580E-02 0.37834250317E-02 -.32058698192E-03 -.12264732611E-02 -.18444028104E-04
 0.13433301114E-02 0.30290548613E-02 0.49064012093E-02 0.49111113880E-02 0.29238436410E-02
 0.13314916289E-02 0.78771483070E-03 0.45463898387E-03 0.59721218893E-03 0.10699010147E-02
 0.10105221995E-02 0.86399957005E-03 0.94992477580E-03 0.61916764324E-03 0.37776205772E-03
 0.64218046423E-03 0.50340201910E-03 0.17032603505E-03 0.24106215378E-03 0.11648306812E-03
 -.18889986249E-04 0.81071698688E-04 -.31587616294E-03 -.58393710404E-03 -.31952870215E-03
 -.68737269325E-03 -.73331206045E-03 0.78238256987E-03 0.16028032550E-02 0.52040337167E-03
 -.68772574844E-03 -.17000739004E-02 -.29118442947E-02 -.29760680656E-02 -.22888914107E-02
 -.54388908746E-02 -.17226773748E-01 -.36119861964E-01 -.52033793797E-01 -.33504607334E+00
 -.24253548148E+00 -.98097439466E-01 0.60092913119E-02 0.33881967550E-01 0.16059653603E-01
 -.20918902139E-02 -.45541080121E-02 -.12541539704E-02 0.31225131938E-03 0.24003414063E-02
 0.43691132616E-02 0.30558227632E-02 0.55506789930E-03 0.12636258436E-03 0.86723287540E-03
 0.10754043486E-02 0.10360892863E-02 0.11033174385E-02 0.83839832466E-03 0.49357373168E-03
 0.56215107931E-03 0.62580340619E-03 0.53514561242E-03 0.48368147341E-03 0.18032089701E-03
 0.17627631899E-04 0.31560261958E-03 0.17567030792E-03 -.23240036473E-03 -.12082261872E-03
 -.11182411989E-03 -.16254417405E-03 0.10219524928E-03 -.39525471013E-03 -.89606069701E-03
 0.28076586549E-03 0.97737429548E-03 -.34509690971E-03 -.10468619753E-02 -.12687545664E-02
 -.30432878971E-02 -.20124293134E-02 0.25455751441E-02 -.11186889403E-01 -.76800304702E-01
 -.19629441292E+00 -.31060055663E+00 0.47992847133E+00 0.34884536549E+00 0.13597403247E+00
 -.22950970325E-01 -.63819083446E-01 -.30350807213E-01 0.29821566122E-02 0.77117189893E-02
 -.73493232246E-03 -.31206001467E-02 0.82361856460E-03 0.19184265289E-02 0.11609841645E-03
 0.24009202437E-03 0.76451326534E-03 0.56835041975E-03 0.15633276568E-02 0.19549335828E-02
 0.65559525826E-03 0.14462568502E-03 0.35360727081E-03 0.31388218865E-03 0.60542686373E-03
 0.44051040141E-03 -.16505883633E-03 0.49382193236E-04 0.19613500470E-03 -.89849160640E-04
 0.65424423630E-04 -.10498276659E-03 -.45789742255E-03 -.62359682400E-04 -.28893950290E-04
 -.31378269936E-03 -.48288886054E-04 -.60786165646E-03 -.14959088783E-02 -.90336391344E-03
 -.10337103623E-02 -.30323397972E-02 -.28841164644E-02 0.55862312969E-04 -.16611197220E-02
 -.88297314307E-02 0.89167546469E-02 0.10269936038E+00 0.27686644085E+00 0.44290673093E+00
 -.32402330672E+00 -.23909990748E+00 -.98028980883E-01 0.83358477634E-02 0.38735282840E-01
 0.19537146070E-01 -.20637232081E-02 -.61766874397E-02 -.23314681405E-02 -.37107578244E-03
 0.11240600244E-02 0.28242675925E-02 0.21614356976E-02 0.17422166450E-03 -.50044444480E-03
 0.26723191062E-04 0.62715654497E-03 0.92165750596E-03 0.71819840983E-03 0.18985796302E-03
 0.18935780893E-03 0.67830189519E-03 0.56610375676E-03 0.11932921482E-03 0.25101621884E-03
 0.36303890848E-03 0.10394953855E-03 0.79261522220E-05 -.51373883662E-04 -.23529610205E-04
 0.75138253384E-04 -.35946578635E-03 -.43975363498E-03 0.29275654138E-03 -.13328726628E-03
 -.11480529771E-02 -.11187146801E-03 0.11330835591E-02 -.10087673499E-04 -.14021269485E-02
 -.19753894089E-02 -.30008611921E-02 -.15919844777E-02 0.18977305091E-02 -.11776363860E-01
 -.72705170136E-01 -.18462214712E+00 -.29532349428E+00 -.53709254812E-01 -.38064590764E-01
 -.14882396782E-01 0.18804565376E-02 0.61613530433E-02 0.21564230550E-02 -.25252228380E-02
 -.36685435231E-02 -.23330595933E-02 -.81785904743E-03 0.88827181001E-03 0.28200540162E-02
 0.30395632545E-02 0.13387865915E-02 -.18615250245E-04 -.36642911840E-03 -.50714919300E-03
 -.22227643506E-03 0.32152992186E-03 0.35192840564E-03 0.36711465351E-03 0.60298732739E-03
 0.32246600261E-03 0.88361199851E-04 0.41470191452E-03 0.36367671347E-03 0.55605081785E-04
 0.11302855057E-03 0.22736554626E-04 -.45704273713E-04 0.60238020941E-04 -.39026466261E-03
 -.66787683294E-03 -.35102823257E-03 -.70784747152E-03 -.80881377034E-03 0.68274256094E-03
 0.15339423442E-02 0.42793125475E-03 -.90810640056E-03 -.20326210852E-02 -.32559031140E-02
 -.33793110737E-02 -.29339361545E-02 -.62797223547E-02 -.17873480898E-01 -.36319455272E-01
 -.52140986833E-01 0.39513110824E+00 0.29160431893E+00 0.11754999587E+00 -.17341693709E-01
 -.57506824269E-01 -.32484132754E-01 -.26729532225E-02 0.36781058906E-02 -.24891341532E-02
 -.48516818265E-02 -.25061766577E-02 -.71709368607E-03 0.71856267390E-03 0.27746195082E-02
 0.31368455934E-02 0.14383116460E-02 -.55805857228E-04 -.53560576791E-03 -.21828839499E-03
 0.48967928962E-03 0.55840070705E-03 0.10011437478E-03 0.12172239753E-03 0.27943758975E-03
 0.89985101595E-04 0.37980580928E-04 0.13225063000E-03 0.13232513962E-03 0.14306884851E-03
 -.66058615629E-04 -.36838902076E-03 -.33744893518E-03 -.44759156136E-03 -.63993650729E-03
 -.14420327217E-03 0.11907533967E-03 -.67983945023E-03 -.13207449589E-02 -.18880923358E-02
 -.33263113087E-02 -.35381817461E-02 -.19375325868E-02 -.42058874706E-02 -.95856316755E-02
 0.73628688703E-02 0.85079238563E-01 0.22571004369E+00 0.36134415069E+00 -.48847733907E+00
 -.35597602537E+00 -.14060283610E+00 0.20109742369E-01 0.64005376409E-01 0.33468008057E-01
 0.14343771139E-02 -.35118525292E-02 0.21952324868E-02 0.19938725698E-02 -.19697160632E-02
 -.32171387041E-02 -.13326061192E-02 0.13371423725E-02 0.33450564360E-02 0.34847444221E-02
 0.13353186676E-02 -.35297149105E-03 0.28390631823E-03 0.77073611223E-03 0.19901733694E-03
 0.23820983529E-03 0.39743060375E-03 0.27345359204E-03 0.39740110970E-03 0.17090296858E-03
 0.79783577294E-04 0.44094099719E-03 0.12549915235E-03 -.10297890216E-03 0.10650498957E-03
 -.39812645983E-03 -.21074056814E-03 0.11160062428E-02 0.10117885301E-02 -.38115983199E-03
 -.14426558760E-02 -.24982080458E-02 -.26668996999E-02 -.10458216163E-02 -.81776911654E-03
 -.35700822346E-02 -.22217162282E-02 0.46266251843E-02 -.13736358209E-01 -.10762550721E+00
 -.28145631621E+00 -.44936877286E+00 0.25562244003E+00 0.18569319022E+00 0.77492189299E-01
 0.29552574188E-02 -.13116862530E-01 0.19777854959E-02 0.15250300723E-01 0.19555897296E-01
 0.20416900879E-01 0.17231165128E-01 0.88754231440E-02 0.49344838242E-03 -.26340436196E-02
 -.11689218263E-02 0.80859577019E-03 0.15088450794E-02 0.16177439852E-02 0.13238201451E-02
 0.73960521181E-03 0.19537412422E-03 -.61818448334E-04 0.44621273824E-03 0.96034176671E-03
 0.56923196710E-03 0.32445680284E-03 0.54010254072E-03 0.40431618137E-03 0.16902698015E-03
 -.46854073232E-05 -.35247655413E-04 0.20925981775E-03 0.79170021755E-05 -.69519344439E-04
 0.70901570529E-03 0.58673406010E-03 -.10832515144E-02 -.24428369754E-02 -.16087207379E-02
 0.19475677319E-02 0.50526154569E-02 0.43861269588E-02 0.19724796581E-02 -.11571977410E-02
 -.53166127481E-02 0.34709016809E-02 0.51808130206E-01 0.14419883057E+00 0.23482800948E+00
 0.17728357115E+00 0.13496831927E+00 0.65261779471E-01 0.10413049955E-01 -.84320641125E-02
 0.11327573749E-03 0.15113332500E-01 0.24695395088E-01 0.28391277913E-01 0.27243976634E-01
 0.21445067140E-01 0.12857215091E-01 0.50370129081E-02 0.12048435948E-02 0.29039778112E-03
 -.53108220779E-04 0.80252397548E-03 0.18066227064E-02 0.99107063464E-03 0.35752034217E-04
 -.84944556599E-04 0.21870560815E-03 0.11825446762E-02 0.11963998659E-02 0.22588452845E-03
 0.47606109432E-03 0.71279193292E-03 0.74134250694E-05 -.66708946703E-04 -.81232350900E-04
 -.25652202978E-03 0.11500672285E-03 -.92199527456E-04 -.35385322365E-03 0.54565478141E-04
 -.64370917477E-03 -.10065258029E-02 0.21287413283E-02 0.63728465162E-02 0.73534610625E-02
 0.53919347300E-02 0.30195967975E-02 -.11319828557E-03 -.25058125576E-02 0.78300430692E-02
 0.45539508642E-01 0.10741001486E+00 0.16398886687E+00 -.42975577613E+00 -.28789089175E+00
 -.70428228939E-01 0.92476993454E-01 0.13709333089E+00 0.97613115361E-01 0.46861498927E-01
 0.24102828090E-01 0.23156677658E-01 0.26040435701E-01 0.26232458609E-01 0.24831571378E-01
 0.20740915884E-01 0.12851558145E-01 0.56041171431E-02 0.20998178020E-02 0.33775569911E-03
 0.10597575127E-03 0.13349758765E-02 0.12379276860E-02 0.25986741669E-03 0.36085744012E-03
 0.73730579707E-03 0.95043317338E-03 0.83778824826E-03 0.18463015103E-03 0.36333282555E-03
 0.93551755385E-03 0.34711989964E-03 -.23353961074E-03 -.15424028468E-03 -.34787427520E-03
 -.40151078312E-03 -.11187768149E-04 0.44071097753E-03 0.16325079005E-02 0.38787146630E-02
 0.58548416640E-02 0.63750241100E-02 0.49729926024E-02 0.77571423023E-03 -.26757367291E-02
 0.52909993374E-02 0.21649678600E-01 0.70543228510E-02 -.87556187013E-01 -.25601660818E+00
 -.40821999859E+00 0.62366016860E+00 0.51552690662E+00 0.31936677042E+00 0.17136424781E+00
 0.13033712975E+00 0.14686905331E+00 0.14601989238E+00 0.10791676231E+00 0.62757815979E-01
 0.37492673316E-01 0.30453389622E-01 0.29763505702E-01 0.30340765075E-01 0.28620738881E-01
 0.20630869060E-01 0.95796364399E-02 0.20907570824E-02 -.27675785543E-03 0.58149262624E-03
 0.23032662192E-02 0.25218138211E-02 0.12563748657E-02 0.37252863050E-03 0.50832051918E-03
 0.83449800055E-03 0.62396075438E-03 0.51149532436E-03 0.11861697922E-02 0.14047278250E-02
 0.56729807607E-03 -.45889889671E-05 -.24651316160E-03 -.32349216503E-03 0.12451409968E-02
 0.40216190664E-02 0.55137816153E-02 0.54098538219E-02 0.48873620218E-02 0.35311286579E-02
 0.11316938073E-02 0.23169480707E-02 0.12798430088E-01 0.27401772081E-01 0.38523951302E-01
 0.70113284965E-01 0.17538075002E+00 0.36621416782E+00 0.55802805407E+00 0.77443237619E-01
 0.15966985720E+00 0.26416826126E+00 0.33885451682E+00 0.36483067242E+00 0.35781940308E+00
 0.32632636196E+00 0.26941049652E+00 0.19742228076E+00 0.12789928790E+00 0.76853495196E-01
 0.48112896304E-01 0.35570276379E-01 0.36144806172E-01 0.38164620371E-01 0.26918463474E-01
 0.10427141831E-01 0.12563045152E-02 -.65293692868E-03 0.32174573575E-02 0.61417104652E-02
 0.31315716327E-02 0.85169080952E-03 0.98333488266E-03 0.10162483248E-02 0.18225106918E-02
 0.11980289365E-02 0.77030812397E-03 0.27068359418E-02 0.21162505027E-02 0.98293926988E-04
 -.24383466609E-04 0.15140324095E-02 0.74824989212E-02 0.11790066993E-01 0.71331246310E-02
 0.29857999604E-02 0.41202240977E-02 0.58184499955E-02 0.12401782165E-01 0.28024777617E-01
 0.50363427632E-01 0.73532239643E-01 0.88285437193E-01 0.93416523065E-01 0.88879811058E-01