    3    3   30    1
  0.1667104E+03  0.7937700E-09  0.7937700E-09  0.7937700E-09  0.3000000E-14
   300.000000000000     
  CAR 
 Water                                   
      8      1      8
 
  0.0000000E+00  0.0000000E+00  0.0000000E+00  0.1000000E+01
      1        -25.285937   1.000000
      2        -12.953155   1.000000
      3         -9.174590   1.000000
      4         -7.075946   1.000000
      5         -1.088612   0.000000
      6          1.091518   0.000000
      7          1.246985   0.000000
      8          1.786538   0.000000
