       N       E                     dE             d eps       ncg     rms          rms(c)
RMM:   1     0.556106697814E+02    0.55611E+02   -0.10443E+03     8   0.306E+02
RMM:   2     0.734286010672E+02    0.17818E+02   -0.21302E+02     8   0.782E+01
RMM:   3     0.646673840357E+02   -0.87612E+01   -0.10348E+02     8   0.437E+01
RMM:   4     0.426352850162E+02   -0.22032E+02   -0.12545E+02     8   0.436E+01
RMM:   5     0.204469020545E+02   -0.22188E+02   -0.24372E+02     8   0.695E+01
RMM:   6     0.259769675640E+01   -0.17849E+02   -0.12008E+02     8   0.640E+01
RMM:   7    -0.897688444753E+01   -0.11575E+02   -0.38299E+01     8   0.395E+01
RMM:   8    -0.150997855469E+02   -0.61229E+01   -0.60187E+01     8   0.415E+01
RMM:   9    -0.159932356358E+02   -0.89345E+00   -0.88118E+00    17   0.166E+01
RMM:  10    -0.160370119814E+02   -0.43776E-01   -0.44054E-01    16   0.417E+00
RMM:  11    -0.160465487479E+02   -0.95368E-02   -0.93527E-02    16   0.183E+00
RMM:  12    -0.160484258484E+02   -0.18771E-02   -0.18726E-02    15   0.752E-01    0.741E+00
RMM:  13    -0.144382838451E+02    0.16101E+01   -0.53999E+00    23   0.158E+01    0.348E+00
RMM:  14    -0.142911535442E+02    0.14713E+00   -0.79142E-02    16   0.171E+00    0.200E+00
RMM:  15    -0.142226469733E+02    0.68507E-01   -0.15355E-01    17   0.216E+00    0.368E-01
RMM:  16    -0.142305599380E+02   -0.79130E-02   -0.31439E-02    16   0.140E+00    0.178E-01
RMM:  17    -0.142368196435E+02   -0.62597E-02   -0.35626E-03    16   0.603E-01    0.186E-01
RMM:  18    -0.142421718557E+02   -0.53522E-02   -0.13288E-02    16   0.725E-01    0.946E-02
RMM:  19    -0.142450050527E+02   -0.28332E-02   -0.21667E-03    16   0.328E-01    0.259E-02
RMM:  20    -0.142457228836E+02   -0.71783E-03   -0.53467E-04    15   0.145E-01    0.120E-02
RMM:  21    -0.142461359130E+02   -0.41303E-03   -0.20676E-04    13   0.666E-02    0.684E-03
RMM:  22    -0.142462266727E+02   -0.90760E-04   -0.47120E-05    12   0.462E-02
   1 F= -.14246227E+02 E0= -.14246227E+02  d E =-.142462E+02
       N       E                     dE             d eps       ncg     rms          rms(c)
RMM:   1    -0.129241504475E+02    0.13220E+01   -0.27770E+01    16   0.484E+01    0.270E+00
RMM:   2    -0.129406393648E+02   -0.16489E-01   -0.15847E+00    16   0.974E+00    0.165E+00
RMM:   3    -0.129450977160E+02   -0.44584E-02   -0.50530E-01    16   0.569E+00    0.931E-01
RMM:   4    -0.129299243142E+02    0.15173E-01   -0.67166E-02    16   0.192E+00    0.524E-01
RMM:   5    -0.129429350008E+02   -0.13011E-01   -0.11062E-01    16   0.240E+00    0.604E-01
RMM:   6    -0.129330462179E+02    0.98888E-02   -0.21334E-02    16   0.120E+00    0.156E-01
RMM:   7    -0.129332540051E+02   -0.20779E-03   -0.56786E-03    16   0.580E-01    0.539E-02
RMM:   8    -0.129337532028E+02   -0.49920E-03   -0.18393E-03    16   0.274E-01    0.406E-02
RMM:   9    -0.129338600834E+02   -0.10688E-03   -0.30987E-04    14   0.989E-02    0.510E-02
RMM:  10    -0.129339216284E+02   -0.61545E-04   -0.61038E-05    12   0.536E-02
   2 F= -.12933922E+02 E0= -.12933922E+02  d E =0.131231E+01
       N       E                     dE             d eps       ncg     rms          rms(c)
RMM:   1    -0.142386791341E+02   -0.13048E+01   -0.20217E+01    16   0.414E+01    0.255E+00
RMM:   2    -0.142296087022E+02    0.90704E-02   -0.10191E+00    16   0.102E+01    0.124E+00
RMM:   3    -0.142433680170E+02   -0.13759E-01   -0.20970E-01    16   0.445E+00    0.619E-01
RMM:   4    -0.142443310400E+02   -0.96302E-03   -0.23801E-02    16   0.141E+00    0.279E-01
RMM:   5    -0.142460173029E+02   -0.16863E-02   -0.54317E-03    16   0.672E-01    0.149E-01
RMM:   6    -0.142456593257E+02    0.35798E-03   -0.22455E-03    16   0.388E-01    0.286E-02
RMM:   7    -0.142461488308E+02   -0.48951E-03   -0.38729E-04    15   0.164E-01    0.102E-02
RMM:   8    -0.142463678362E+02   -0.21901E-03   -0.12003E-04    12   0.759E-02    0.152E-02
RMM:   9    -0.142466167326E+02   -0.24890E-03   -0.26825E-04    15   0.118E-01    0.254E-02
RMM:  10    -0.142466064783E+02    0.10254E-04   -0.42459E-05    12   0.504E-02
   3 F= -.14246606E+02 E0= -.14246606E+02  d E =-.131268E+01
       N       E                     dE             d eps       ncg     rms          rms(c)
RMM:   1    -0.142373658685E+02    0.92509E-02   -0.16266E+00    16   0.120E+01    0.594E-01
RMM:   2    -0.142373017966E+02    0.64072E-04   -0.74792E-02    16   0.284E+00    0.355E-01
RMM:   3    -0.142381861786E+02   -0.88438E-03   -0.28455E-02    16   0.152E+00    0.203E-01
RMM:   4    -0.142372483802E+02    0.93780E-03   -0.44996E-03    16   0.591E-01    0.111E-01
RMM:   5    -0.142380912312E+02   -0.84285E-03   -0.37929E-03    16   0.480E-01    0.131E-01
RMM:   6    -0.142376730113E+02    0.41822E-03   -0.94286E-04    16   0.262E-01    0.375E-02
RMM:   7    -0.142378215548E+02   -0.14854E-03   -0.11914E-03    16   0.260E-01    0.416E-02
RMM:   8    -0.142378240340E+02   -0.24792E-05   -0.77246E-05    12   0.737E-02
   4 F= -.14237824E+02 E0= -.14237824E+02  d E =0.878244E-02
       N       E                     dE             d eps       ncg     rms          rms(c)
RMM:   1    -0.142574519485E+02   -0.19630E-01   -0.76574E-01    16   0.825E+00    0.347E-01
RMM:   2    -0.142584172600E+02   -0.96531E-03   -0.34450E-02    16   0.192E+00    0.218E-01
RMM:   3    -0.142589970738E+02   -0.57981E-03   -0.12219E-02    16   0.994E-01    0.134E-01
RMM:   4    -0.142585742626E+02    0.42281E-03   -0.15229E-03    16   0.345E-01    0.719E-02
RMM:   5    -0.142590447471E+02   -0.47048E-03   -0.28170E-03    16   0.405E-01    0.106E-01
RMM:   6    -0.142587452943E+02    0.29945E-03   -0.76827E-04    16   0.230E-01    0.263E-02
RMM:   7    -0.142588019265E+02   -0.56632E-04   -0.39779E-04    15   0.152E-01
   5 F= -.14258802E+02 E0= -.14258802E+02  d E =-.209779E-01
       N       E                     dE             d eps       ncg     rms          rms(c)
RMM:   1    -0.142414110937E+02    0.17334E-01   -0.33640E-01    16   0.573E+00    0.235E-01
RMM:   2    -0.142422402787E+02   -0.82918E-03   -0.13528E-02    16   0.126E+00    0.168E-01
RMM:   3    -0.142422899663E+02   -0.49688E-04   -0.25970E-03    16   0.458E-01    0.340E-02
RMM:   4    -0.142423543174E+02   -0.64351E-04   -0.35232E-04    14   0.168E-01
   6 F= -.14242354E+02 E0= -.14242354E+02  d E =0.164476E-01
       N       E                     dE             d eps       ncg     rms          rms(c)
RMM:   1    -0.142579529340E+02   -0.15663E-01   -0.23012E-01    16   0.485E+00    0.224E-01
RMM:   2    -0.142583613928E+02   -0.40846E-03   -0.89807E-03    16   0.103E+00    0.156E-01
RMM:   3    -0.142583251075E+02    0.36285E-04   -0.19010E-03    16   0.375E-01    0.260E-02
RMM:   4    -0.142583573545E+02   -0.32247E-04   -0.23511E-04    14   0.139E-01
   7 F= -.14258357E+02 E0= -.14258357E+02  d E =-.160030E-01
       N       E                     dE             d eps       ncg     rms          rms(c)
RMM:   1    -0.142033690285E+02    0.54956E-01   -0.10353E+00    16   0.970E+00    0.573E-01
RMM:   2    -0.142003750517E+02    0.29940E-02   -0.45690E-02    16   0.233E+00    0.315E-01
RMM:   3    -0.142003617816E+02    0.13270E-04   -0.18851E-02    16   0.126E+00    0.161E-01
RMM:   4    -0.141998743274E+02    0.48745E-03   -0.38941E-03    16   0.547E-01    0.978E-02
RMM:   5    -0.142001617595E+02   -0.28743E-03   -0.93923E-04    16   0.259E-01    0.662E-02
RMM:   6    -0.142000574913E+02    0.10427E-03   -0.19223E-04    12   0.121E-01    0.184E-02
RMM:   7    -0.142002065088E+02   -0.14902E-03   -0.52513E-04    15   0.173E-01    0.395E-02
RMM:   8    -0.142001678226E+02    0.38686E-04   -0.86852E-05    12   0.785E-02
   8 F= -.14200168E+02 E0= -.14200168E+02  d E =0.581895E-01
       N       E                     dE             d eps       ncg     rms          rms(c)
RMM:   1    -0.142635564748E+02   -0.63350E-01   -0.82519E-01    16   0.857E+00    0.577E-01
RMM:   2    -0.142590232295E+02    0.45332E-02   -0.37607E-02    16   0.198E+00    0.309E-01
RMM:   3    -0.142588824997E+02    0.14073E-03   -0.19408E-02    16   0.120E+00    0.166E-01
RMM:   4    -0.142582844654E+02    0.59803E-03   -0.15814E-03    16   0.353E-01    0.101E-01
RMM:   5    -0.142586869795E+02   -0.40251E-03   -0.39859E-03    16   0.475E-01    0.105E-01
RMM:   6    -0.142584188607E+02    0.26812E-03   -0.56604E-04    16   0.197E-01    0.403E-02
RMM:   7    -0.142584443328E+02   -0.25472E-04   -0.70262E-04    16   0.201E-01
   9 F= -.14258444E+02 E0= -.14258444E+02  d E =-.582765E-01
       N       E                     dE             d eps       ncg     rms          rms(c)
RMM:   1    -0.142541175457E+02    0.43013E-02   -0.31855E-01    16   0.537E+00    0.149E-01
RMM:   2    -0.142551462071E+02   -0.10287E-02   -0.13155E-02    16   0.126E+00    0.102E-01
RMM:   3    -0.142554314190E+02   -0.28521E-03   -0.21461E-03    16   0.460E-01    0.424E-02
RMM:   4    -0.142554513781E+02   -0.19959E-04   -0.28203E-04    14   0.157E-01
  10 F= -.14255451E+02 E0= -.14255451E+02  d E =0.299295E-02
       N       E                     dE             d eps       ncg     rms          rms(c)
RMM:   1    -0.142552381034E+02    0.19332E-03   -0.13131E-01    16   0.363E+00    0.166E-01
RMM:   2    -0.142555232372E+02   -0.28513E-03   -0.52685E-03    16   0.783E-01    0.117E-01
RMM:   3    -0.142555902610E+02   -0.67024E-04   -0.11325E-03    16   0.292E-01    0.232E-02
RMM:   4    -0.142556090109E+02   -0.18750E-04   -0.14751E-04    13   0.109E-01
  11 F= -.14255609E+02 E0= -.14255609E+02  d E =-.157633E-03
       N       E                     dE             d eps       ncg     rms          rms(c)
RMM:   1    -0.142589116635E+02   -0.33214E-02   -0.72504E-02    16   0.264E+00    0.916E-02
RMM:   2    -0.142591426712E+02   -0.23101E-03   -0.29729E-03    15   0.595E-01    0.676E-02
RMM:   3    -0.142591486309E+02   -0.59598E-05   -0.49842E-04    15   0.211E-01
  12 F= -.14259149E+02 E0= -.14259149E+02  d E =-.353962E-02
