 vasp.6.3.2 27Jun22 (build Oct 09 2024 22:06:44) gamma-only                     
  
 executed on             LinuxIFC date 2024.10.09  22:53:36
 running on    4 total cores
 distrk:  each k-point on    4 cores,    1 groups
 distr:  one band on NCORE=   1 cores,    4 groups


--------------------------------------------------------------------------------------------------------


 INCAR:
   SYSTEM = Water
   ISMEAR = 0
   SIGMA = 0.1
   LREAL = Auto
   ALGO = VeryFast
   PREC = Low
   ISYM = 0
   IBRION = 1
   NSW = 30
   POTIM = 3.0
   MDALGO = 2
   SMASS = 1.0
   TEBEG = 300
   TEEND = 300
   ISIF = 2

 POTCAR:    PAW_PBE O 08Apr2002                   
 POTCAR:    PAW_PBE H 15Jun2001                   
 POTCAR:    PAW_PBE O 08Apr2002                   
   VRHFIN =O: s2p4                                                                                  
   LEXCH  = PE                                                                                      
   EATOM  =   432.3788 eV,   31.7789 Ry                                                             
                                                                                                    
   TITEL  = PAW_PBE O 08Apr2002                                                                     
   LULTRA =        F    use ultrasoft PP ?                                                          
   IUNSCR =        1    unscreen: 0-lin 1-nonlin 2-no                                               
   RPACOR =    1.200    partial core radius                                                         
   POMASS =   16.000; ZVAL   =    6.000    mass and valenz                                          
   RCORE  =    1.520    outmost cutoff radius                                                       
   RWIGS  =    1.550; RWIGS  =    0.820    wigner-seitz radius (au A)                               
   ENMAX  =  400.000; ENMIN  =  300.000 eV                                                          
   ICORE  =        2    local potential                                                             
   LCOR   =        T    correct aug charges                                                         
   LPAW   =        T    paw PP                                                                      
   EAUG   =  605.392                                                                                
   DEXC   =    0.000                                                                                
   RMAX   =    1.553    core radius for proj-oper                                                   
   RAUG   =    1.300    factor for augmentation sphere                                              
   RDEP   =    1.550    radius for radial grids                                                     
   RDEPT  =    1.329    core radius for aug-charge                                                  
                                                                                                    
   Atomic configuration                                                                             
    4 entries                                                                                       
     n  l   j            E        occ.                                                              
     1  0  0.50      -514.6923   2.0000                                                             
     2  0  0.50       -23.9615   2.0000                                                             
     2  1  0.50        -9.0305   4.0000                                                             
     3  2  1.50        -9.5241   0.0000                                                             
   Description                                                                                      
     l       E           TYP  RCUT    TYP  RCUT                                                     
     0    -23.9615318     23  1.200                                                                 
     0     -9.5240782     23  1.200                                                                 
     1     -9.0304911     23  1.520                                                                 
     1      8.1634956     23  1.520                                                                 
     2     -9.5240782      7  1.500                                                                 
  local pseudopotential read in
  partial core-charges read in
  partial kinetic energy density read in
  kinetic energy density of atom read in
  atomic valenz-charges read in
  non local Contribution for L=           0  read in
    real space projection operators read in
  non local Contribution for L=           0  read in
    real space projection operators read in
  non local Contribution for L=           1  read in
    real space projection operators read in
  non local Contribution for L=           1  read in
    real space projection operators read in
    PAW grid and wavefunctions read in
 
   number of l-projection  operators is LMAX  =           4
   number of lm-projection operators is LMMAX =           8
 
 POTCAR:    PAW_PBE H 15Jun2001                   
   VRHFIN =H: ultrasoft test                                                                        
   LEXCH  = PE                                                                                      
   EATOM  =    12.4884 eV,    0.9179 Ry                                                             
                                                                                                    
   TITEL  = PAW_PBE H 15Jun2001                                                                     
   LULTRA =        F    use ultrasoft PP ?                                                          
   IUNSCR =        0    unscreen: 0-lin 1-nonlin 2-no                                               
   RPACOR =    0.000    partial core radius                                                         
   POMASS =    1.000; ZVAL   =    1.000    mass and valenz                                          
   RCORE  =    1.100    outmost cutoff radius                                                       
   RWIGS  =    0.700; RWIGS  =    0.370    wigner-seitz radius (au A)                               
   ENMAX  =  250.000; ENMIN  =  200.000 eV                                                          
   RCLOC  =    0.701    cutoff for local pot                                                        
   LCOR   =        T    correct aug charges                                                         
   LPAW   =        T    paw PP                                                                      
   EAUG   =  400.000                                                                                
   RMAX   =    1.123    core radius for proj-oper                                                   
   RAUG   =    1.200    factor for augmentation sphere                                              
   RDEP   =    1.112    radius for radial grids                                                     
   RDEPT  =    0.926    core radius for aug-charge                                                  
                                                                                                    
   Atomic configuration                                                                             
    2 entries                                                                                       
     n  l   j            E        occ.                                                              
     1  0  0.50        -6.4927   1.0000                                                             
     2  1  0.50        -3.4015   0.0000                                                             
   Description                                                                                      
     l       E           TYP  RCUT    TYP  RCUT                                                     
     0     -6.4927494     23  1.100                                                                 
     0      6.8029130     23  1.100                                                                 
     1     -4.0817478     23  1.100                                                                 
  local pseudopotential read in
  atomic valenz-charges read in
  non local Contribution for L=           0  read in
    real space projection operators read in
  non local Contribution for L=           0  read in
    real space projection operators read in
  non local Contribution for L=           1  read in
    real space projection operators read in
    PAW grid and wavefunctions read in
 
   number of l-projection  operators is LMAX  =           3
   number of lm-projection operators is LMMAX =           5
 
 -----------------------------------------------------------------------------
|                                                                             |
|               ----> ADVICE to this user running VASP <----                  |
|                                                                             |
|     You have a (more or less) 'small supercell' and for smaller cells       |
|     it is recommended to use the reciprocal-space projection scheme!        |
|     The real-space optimization is not efficient for small cells and it     |
|     is also less accurate ...                                               |
|     Therefore, set LREAL=.FALSE. in the INCAR file.                         |
|                                                                             |
 -----------------------------------------------------------------------------

 Optimization of the real space projectors (new method)

 maximal supplied QI-value         = 24.76
 optimisation between [QCUT,QGAM] = [  8.66, 17.58] = [ 21.02, 86.51] Ry 
 Optimized for a Real-space Cutoff    1.12 Angstroem

   l    n(q)    QCUT    max X(q) W(low)/X(q) W(high)/X(q)  e(spline) 
   0      6     8.664    20.381    0.14E-02    0.13E-02    0.15E-06
   0      6     8.664    15.268    0.16E-02    0.13E-02    0.16E-06
   1      5     8.664     5.774    0.14E-02    0.12E-02    0.13E-06
   1      5     8.664     5.209    0.12E-02    0.10E-02    0.12E-06
 Optimization of the real space projectors (new method)

 maximal supplied QI-value         = 34.20
 optimisation between [QCUT,QGAM] = [  8.55, 17.44] = [ 20.48, 85.21] Ry 
 Optimized for a Real-space Cutoff    1.12 Angstroem

   l    n(q)    QCUT    max X(q) W(low)/X(q) W(high)/X(q)  e(spline) 
   0      6     8.551    19.232    0.52E-03    0.34E-02    0.18E-06
   0      6     8.551    12.169    0.45E-03    0.32E-02    0.17E-06
   1      5     8.551     4.465    0.66E-02    0.67E-02    0.12E-06
  PAW_PBE O 08Apr2002                   :
 energy of atom  1       EATOM= -432.3788
 kinetic energy error for atom=    1.1955 (will be added to EATOM!!)
  PAW_PBE H 15Jun2001                   :
 energy of atom  2       EATOM=  -12.4884
 kinetic energy error for atom=    0.0426 (will be added to EATOM!!)
 
 
 POSCAR: H2O_2
  positions in cartesian coordinates
  velocities in cartesian coordinates
  No initial velocities read in
 exchange correlation table for  LEXCH =        8
   RHO(1)=    0.500       N(1)  =     2000
   RHO(2)=  100.500       N(2)  =     4000
 


--------------------------------------------------------------------------------------------------------


 ion  position               nearest neighbor table
   1  0.000  0.000  0.000-   2 0.95   3 0.95
   2  0.073  0.905  0.000-   1 0.95
   3  0.073  0.095  0.000-   1 0.95
 

IMPORTANT INFORMATION: All symmetrisations will be switched off!
NOSYMM: (Re-)initialisation of all symmetry stuff for point group C_1.


----------------------------------------------------------------------------------------

                                     Primitive cell                                     

  volume of cell :     500.1313

  direct lattice vectors                    reciprocal lattice vectors
     7.937700000  0.000000000  0.000000000     0.125981078  0.000000000  0.000000000
     0.000000000  7.937700000  0.000000000     0.000000000  0.125981078  0.000000000
     0.000000000  0.000000000  7.937700000     0.000000000  0.000000000  0.125981078

  length of vectors
     7.937700000  7.937700000  7.937700000     0.125981078  0.125981078  0.125981078

  position of ions in fractional coordinates (direct lattice)
     0.000000000  0.000000000  0.000000000
     0.073333333  0.904666667  0.000000000
     0.073333333  0.095333333  0.000000000

  ion indices of the primitive-cell ions
   primitive index   ion index
                 1           1
                 2           2
                 3           3

----------------------------------------------------------------------------------------

 
 
 KPOINTS: Gamma-point only                        

Automatic generation of k-mesh.
 Grid dimensions read from file:
 generate k-points for:    1    1    1

 Generating k-lattice:

  Cartesian coordinates                     Fractional coordinates (reciprocal lattice)
     0.125981078  0.000000000  0.000000000     1.000000000  0.000000000  0.000000000
     0.000000000  0.125981078  0.000000000     0.000000000  1.000000000  0.000000000
     0.000000000  0.000000000  0.125981078     0.000000000  0.000000000  1.000000000

  Length of vectors
     0.125981078  0.125981078  0.125981078

  Shift w.r.t. Gamma in fractional coordinates (k-lattice)
     0.000000000  0.000000000  0.000000000

 
 Subroutine IBZKPT returns following result:
 ===========================================
 
 Found      1 irreducible k-points:
 
 Following reciprocal coordinates:
            Coordinates               Weight
  0.000000  0.000000  0.000000      1.000000
 
 Following cartesian coordinates:
            Coordinates               Weight
  0.000000  0.000000  0.000000      1.000000
 


--------------------------------------------------------------------------------------------------------




 Dimension of arrays:
   k-points           NKPTS =      1   k-points in BZ     NKDIM =      1   number of bands    NBANDS=      8
   number of dos      NEDOS =    301   number of ions     NIONS =      3
   non local maximal  LDIM  =      4   non local SUM 2l+1 LMDIM =      8
   total plane-waves  NPLWV =  46656
   max r-space proj   IRMAX =    596   max aug-charges    IRDMAX=    558
   dimension x,y,z NGX =    36 NGY =   36 NGZ =   36
   dimension x,y,z NGXF=    48 NGYF=   48 NGZF=   48
   support grid    NGXF=    48 NGYF=   48 NGZF=   48
   ions per type =               1   2
   NGX,Y,Z   is equivalent  to a cutoff of   7.54,  7.54,  7.54 a.u.
   NGXF,Y,Z  is equivalent  to a cutoff of  10.05, 10.05, 10.05 a.u.

 SYSTEM =  Water                                   
 POSCAR =  H2O_2                                   

 Startparameter for this run:
   NWRITE =      2    write-flag & timer
   PREC   = low       normal or accurate (medium, high low for compatibility)
   ISTART =      0    job   : 0-new  1-cont  2-samecut
   ICHARG =      2    charge: 1-file 2-atom 10-const
   ISPIN  =      1    spin polarized calculation?
   LNONCOLLINEAR =      F non collinear calculations
   LSORBIT =      F    spin-orbit coupling
   INIWAV =      1    electr: 0-lowe 1-rand  2-diag
   LASPH  =      F    aspherical Exc in radial PAW
 Electronic Relaxation 1
   ENCUT  =  300.0 eV  22.05 Ry    4.70 a.u.  11.21 11.21 11.21*2*pi/ulx,y,z
   ENINI  =  300.0     initial cutoff
   ENAUG  =  605.4 eV  augmentation charge cutoff
   NELM   =     60;   NELMIN=  2; NELMDL=  0     # of ELM steps 
   EDIFF  = 0.1E-03   stopping-criterion for ELM
   LREAL  =      T    real-space projection
   NLSPLINE    = F    spline interpolate recip. space projectors
   LCOMPAT=      F    compatible to vasp.4.4
   GGA_COMPAT  = T    GGA compatible to vasp.4.4-vasp.4.6
   LMAXPAW     = -100 max onsite density
   LMAXMIX     =    2 max onsite mixed and CHGCAR
   VOSKOWN=      0    Vosko Wilk Nusair interpolation
   ROPT   =   -0.01000  -0.01000
 Ionic relaxation
   EDIFFG = 0.1E-02   stopping-criterion for IOM
   NSW    =     30    number of steps for IOM
   NBLOCK =      1;   KBLOCK =     30    inner block; outer block 
   IBRION =      1    ionic relax: 0-MD 1-quasi-New 2-CG
   NFREE  =      0    steps in history (QN), initial steepest desc. (CG)
   ISIF   =      2    stress and relaxation
   IWAVPR =     11    prediction:  0-non 1-charg 2-wave 3-comb
   ISYM   =      0    0-nonsym 1-usesym 2-fastsym
   LCORR  =      T    Harris-Foulkes like correction to forces

   POTIM  = 3.0000    time-step for ionic-motion
   TEIN   =    0.0    initial temperature
   TEBEG  =  300.0;   TEEND  = 300.0 temperature during run
   SMASS  =   1.00    Nose mass-parameter (am)
   estimated Nose-frequenzy (Omega)   =  0.56E+13 period in steps = 0.37E+03 mass=   0.480E-27a.u.
   SCALEE = 1.0000    scale energy and forces
   NPACO  =    256;   APACO  = 10.0  distance and # of slots for P.C.
   PSTRESS=    0.0 pullay stress

  Mass of Ions in am
   POMASS =  16.00  1.00
  Ionic Valenz
   ZVAL   =   6.00  1.00
  Atomic Wigner-Seitz radii
   RWIGS  =  -1.00 -1.00
  virtual crystal weights 
   VCA    =   1.00  1.00
   NELECT =       8.0000    total number of electrons
   NUPDOWN=      -1.0000    fix difference up-down

 DOS related values:
   EMIN   =  10.00;   EMAX   =-10.00  energy-range for DOS
   EFERMI =   0.00
   ISMEAR =     0;   SIGMA  =   0.10  broadening in eV -4-tet -1-fermi 0-gaus

 Electronic relaxation 2 (details)
   IALGO  =     48    algorithm
   LDIAG  =      T    sub-space diagonalisation (order eigenvalues)
   LSUBROT=      F    optimize rotation matrix (better conditioning)
   TURBO    =      0    0=normal 1=particle mesh
   IRESTART =      0    0=no restart 2=restart with 2 vectors
   NREBOOT  =      0    no. of reboots
   NMIN     =      0    reboot dimension
   EREF     =   0.00    reference energy to select bands
   IMIX   =      4    mixing-type and parameters
     AMIX     =   0.40;   BMIX     =  1.00
     AMIX_MAG =   1.60;   BMIX_MAG =  1.00
     AMIN     =   0.10
     WC   =   100.;   INIMIX=   1;  MIXPRE=   1;  MAXMIX= -45

 Intra band minimization:
   WEIMIN = 0.0010     energy-eigenvalue tresh-hold
   EBREAK =  0.31E-05  absolut break condition
   DEPER  =   0.30     relativ break condition  

   TIME   =   0.40     timestep for ELM

  volume/ion in A,a.u.               =     166.71      1125.02
  Fermi-wavevector in a.u.,A,eV,Ry     =   0.412487  0.779487  2.314969  0.170145
  Thomas-Fermi vector in A             =   1.369490
 
 Write flags
   LWAVE        =      T    write WAVECAR
   LDOWNSAMPLE  =      F    k-point downsampling of WAVECAR
   LCHARG       =      T    write CHGCAR
   LVTOT        =      F    write LOCPOT, total local potential
   LVHAR        =      F    write LOCPOT, Hartree potential only
   LELF         =      F    write electronic localiz. function (ELF)
   LORBIT       =      0    0 simple, 1 ext, 2 COOP (PROOUT), +10 PAW based schemes


 Dipole corrections
   LMONO  =      F    monopole corrections only (constant potential shift)
   LDIPOL =      F    correct potential (dipole corrections)
   IDIPOL =      0    1-x, 2-y, 3-z, 4-all directions 
   EPSILON=  1.0000000 bulk dielectric constant

 Exchange correlation treatment:
   GGA     =    --    GGA type
   LEXCH   =     8    internal setting for exchange type
   LIBXC   =     F    Libxc                    
   VOSKOWN =     0    Vosko Wilk Nusair interpolation
   LHFCALC =     F    Hartree Fock is set to
   LHFONE  =     F    Hartree Fock one center treatment
   AEXX    =    0.0000 exact exchange contribution

 Linear response parameters
   LEPSILON=     F    determine dielectric tensor
   LRPA    =     F    only Hartree local field effects (RPA)
   LNABLA  =     F    use nabla operator in PAW spheres
   LVEL    =     F    velocity operator in full k-point grid
   CSHIFT  =0.1000    complex shift for real part using Kramers Kronig
   OMEGAMAX=  -1.0    maximum frequency
   DEG_THRESHOLD= 0.2000000E-02 threshold for treating states as degnerate
   RTIME   =   -0.100 relaxation time in fs
  (WPLASMAI=    0.000 imaginary part of plasma frequency in eV, 0.658/RTIME)
   DFIELD  = 0.0000000 0.0000000 0.0000000 field for delta impulse in time
 
  Optional k-point grid parameters
   LKPOINTS_OPT  =     F    use optional k-point grid
   KPOINTS_OPT_MODE=     1    mode for optional k-point grid
 
 Orbital magnetization related:
   ORBITALMAG=     F  switch on orbital magnetization
   LCHIMAG   =     F  perturbation theory with respect to B field
   DQ        =  0.001000  dq finite difference perturbation B field
   LLRAUG    =     F  two centre corrections for induced B field



--------------------------------------------------------------------------------------------------------


 quasi-Newton-method for relaxation of ions
   using selective dynamics as specified on POSCAR
   WARNING: If single coordinates had been selected the selection of coordinates
            is made according to the corresponding   d i r e c t   coordinates!
            Don't support selection of single cartesian coordinates -- sorry ...
  !
 charge density and potential will be updated during run
 non-spin polarized calculation
 RMM-DIIS sequential band-by-band
 perform sub-space diagonalisation
    before iterative eigenvector-optimisation
 modified Broyden-mixing scheme, WC =      100.0
 initial mixing is a Kerker type mixing with AMIX =  0.4000 and BMIX =      1.0000
 Hartree-type preconditioning will be used
 using additional bands            4
 real space projection scheme for non local part
 use partial core corrections
 calculate Harris-corrections to forces 
   (improved forces if not selfconsistent)
 use gradient corrections 
 use of overlap-Matrix (Vanderbilt PP)
 Gauss-broadening in eV      SIGMA  =   0.10


--------------------------------------------------------------------------------------------------------


  energy-cutoff  :      300.00
  volume of cell :      500.13
      direct lattice vectors                 reciprocal lattice vectors
     7.937700000  0.000000000  0.000000000     0.125981078  0.000000000  0.000000000
     0.000000000  7.937700000  0.000000000     0.000000000  0.125981078  0.000000000
     0.000000000  0.000000000  7.937700000     0.000000000  0.000000000  0.125981078

  length of vectors
     7.937700000  7.937700000  7.937700000     0.125981078  0.125981078  0.125981078


 
 k-points in units of 2pi/SCALE and weight: Gamma-point only                        
   0.00000000  0.00000000  0.00000000       1.000
 
 k-points in reciprocal lattice and weights: Gamma-point only                        
   0.00000000  0.00000000  0.00000000       1.000
 
 position of ions in fractional coordinates (direct lattice) 
   0.00000000  0.00000000  0.00000000
   0.07333333  0.90466667  0.00000000
   0.07333333  0.09533333  0.00000000
 
 position of ions in cartesian coordinates  (Angst):
   0.00000000  0.00000000  0.00000000
   0.58209800  7.18097260  0.00000000
   0.58209800  0.75672740  0.00000000
 


--------------------------------------------------------------------------------------------------------


 use serial FFT for orbitals x direction half grid
 k-point   1 :   0.0000 0.0000 0.0000  plane waves:    2944

 maximum and minimum number of plane-waves per node :      2944     2944

 maximum number of plane-waves:      2944
 maximum index in each direction: 
   IXMAX=   11   IYMAX=   11   IZMAX=   11
   IXMIN=    0   IYMIN=  -11   IZMIN=  -11


 serial   3D FFT for wavefunctions
 parallel 3D FFT for charge:
    minimum data exchange during FFTs selected (reduces bandwidth)


 total amount of memory used by VASP MPI-rank0    34926. kBytes
=======================================================================

   base      :      30000. kBytes
   nonlr-proj:         83. kBytes
   fftplans  :       1264. kBytes
   grid      :       3481. kBytes
   one-center:          4. kBytes
   wavefun   :         94. kBytes
 
     INWAV:  cpu time      0.0000: real time      0.0002
 Broyden mixing: mesh for mixing (old mesh)
   NGX = 23   NGY = 23   NGZ = 23
  (NGX  = 48   NGY  = 48   NGZ  = 48)
  gives a total of  12167 points

 initial charge density was supplied:
 charge density of overlapping atoms calculated
 number of electron       8.0000000 magnetization 
 keeping initial charge density in first step


--------------------------------------------------------------------------------------------------------


 Maximum index for non-local projection operator          532
 Maximum index for augmentation-charges           79 (set IRDMAX)


--------------------------------------------------------------------------------------------------------


 First call to EWALD:  gamma=   0.223
 Maximum number of real-space cells 3x 3x 3
 Maximum number of reciprocal cells 3x 3x 3

    FEWALD:  cpu time      0.0003: real time      0.0006


--------------------------------------- Iteration      1(   1)  ---------------------------------------


    POTLOK:  cpu time      0.0096: real time      0.0125
    SETDIJ:  cpu time      0.0012: real time      0.0020
    EDDIAG:  cpu time      0.0041: real time      0.0075
  RMM-DIIS:  cpu time      0.0039: real time      0.0042
    ORTHCH:  cpu time      0.0003: real time      0.0007
       DOS:  cpu time      0.0002: real time      0.0011
    --------------------------------------------
      LOOP:  cpu time      0.0193: real time      0.0282

 eigenvalue-minimisations  :     8
 total energy-change (2. order) : 0.5561067E+02  (-0.1044301E+03)
 number of electron       8.0000000 magnetization 
 augmentation part        8.0000000 magnetization 

 Free energy of the ion-electron system (eV)
  ---------------------------------------------------
  alpha Z        PSCENC =         0.44838482
  Ewald energy   TEWEN  =        26.60306768
  -Hartree energ DENC   =      -386.12288633
  -exchange      EXHF   =         0.00000000
  -V(xc)+E(xc)   XCENC  =        32.24954641
  PAW double counting   =       350.81753176     -352.63395800
  entropy T*S    EENTRO =        -0.00000000
  eigenvalues    EBANDS =       -71.82589914
  atomic energy  EATOM  =       456.07488257
  Solvation  Ediel_sol  =         0.00000000
  ---------------------------------------------------
  free energy    TOTEN  =        55.61066978 eV

  energy without entropy =       55.61066978  energy(sigma->0) =       55.61066978


--------------------------------------------------------------------------------------------------------




--------------------------------------- Iteration      1(   2)  ---------------------------------------


    EDDIAG:  cpu time      0.0027: real time      0.0068
  RMM-DIIS:  cpu time      0.0056: real time      0.0060
    ORTHCH:  cpu time      0.0002: real time      0.0005
       DOS:  cpu time      0.0001: real time      0.0002
    --------------------------------------------
      LOOP:  cpu time      0.0085: real time      0.0136

 eigenvalue-minimisations  :     8
 total energy-change (2. order) : 0.1781793E+02  (-0.2130155E+02)
 number of electron       8.0000000 magnetization 
 augmentation part        8.0000000 magnetization 

 Free energy of the ion-electron system (eV)
  ---------------------------------------------------
  alpha Z        PSCENC =         0.44838482
  Ewald energy   TEWEN  =        26.60306768
  -Hartree energ DENC   =      -386.12288633
  -exchange      EXHF   =         0.00000000
  -V(xc)+E(xc)   XCENC  =        32.24954641
  PAW double counting   =       350.81753176     -352.63395800
  entropy T*S    EENTRO =        -0.00000000
  eigenvalues    EBANDS =       -54.00796786
  atomic energy  EATOM  =       456.07488257
  Solvation  Ediel_sol  =         0.00000000
  ---------------------------------------------------
  free energy    TOTEN  =        73.42860107 eV

  energy without entropy =       73.42860107  energy(sigma->0) =       73.42860107


--------------------------------------------------------------------------------------------------------




--------------------------------------- Iteration      1(   3)  ---------------------------------------


    EDDIAG:  cpu time      0.0022: real time      0.0061
  RMM-DIIS:  cpu time      0.0053: real time      0.0055
    ORTHCH:  cpu time      0.0002: real time      0.0006
       DOS:  cpu time      0.0001: real time      0.0003
    --------------------------------------------
      LOOP:  cpu time      0.0078: real time      0.0126

 eigenvalue-minimisations  :     8
 total energy-change (2. order) :-0.8761217E+01  (-0.1034817E+02)
 number of electron       8.0000000 magnetization 
 augmentation part        8.0000000 magnetization 

 Free energy of the ion-electron system (eV)
  ---------------------------------------------------
  alpha Z        PSCENC =         0.44838482
  Ewald energy   TEWEN  =        26.60306768
  -Hartree energ DENC   =      -386.12288633
  -exchange      EXHF   =         0.00000000
  -V(xc)+E(xc)   XCENC  =        32.24954641
  PAW double counting   =       350.81753176     -352.63395800
  entropy T*S    EENTRO =        -0.00242014
  eigenvalues    EBANDS =       -62.76676475
  atomic energy  EATOM  =       456.07488257
  Solvation  Ediel_sol  =         0.00000000
  ---------------------------------------------------
  free energy    TOTEN  =        64.66738404 eV

  energy without entropy =       64.66980417  energy(sigma->0) =       64.66859410


--------------------------------------------------------------------------------------------------------




--------------------------------------- Iteration      1(   4)  ---------------------------------------


    EDDIAG:  cpu time      0.0023: real time      0.0064
  RMM-DIIS:  cpu time      0.0035: real time      0.0037
    ORTHCH:  cpu time      0.0002: real time      0.0004
       DOS:  cpu time      0.0001: real time      0.0002
    --------------------------------------------
      LOOP:  cpu time      0.0060: real time      0.0106

 eigenvalue-minimisations  :     8
 total energy-change (2. order) :-0.2203210E+02  (-0.1254507E+02)
 number of electron       8.0000000 magnetization 
 augmentation part        8.0000000 magnetization 

 Free energy of the ion-electron system (eV)
  ---------------------------------------------------
  alpha Z        PSCENC =         0.44838482
  Ewald energy   TEWEN  =        26.60306768
  -Hartree energ DENC   =      -386.12288633
  -exchange      EXHF   =         0.00000000
  -V(xc)+E(xc)   XCENC  =        32.24954641
  PAW double counting   =       350.81753176     -352.63395800
  entropy T*S    EENTRO =        -0.02610954
  eigenvalues    EBANDS =       -84.77517437
  atomic energy  EATOM  =       456.07488257
  Solvation  Ediel_sol  =         0.00000000
  ---------------------------------------------------
  free energy    TOTEN  =        42.63528502 eV

  energy without entropy =       42.66139456  energy(sigma->0) =       42.64833979


--------------------------------------------------------------------------------------------------------




--------------------------------------- Iteration      1(   5)  ---------------------------------------


    EDDIAG:  cpu time      0.0033: real time      0.0080
  RMM-DIIS:  cpu time      0.0047: real time      0.0050
    ORTHCH:  cpu time      0.0002: real time      0.0005
       DOS:  cpu time      0.0001: real time      0.0002
    --------------------------------------------
      LOOP:  cpu time      0.0082: real time      0.0137

 eigenvalue-minimisations  :     8
 total energy-change (2. order) :-0.2218838E+02  (-0.2437166E+02)
 number of electron       8.0000000 magnetization 
 augmentation part        8.0000000 magnetization 

 Free energy of the ion-electron system (eV)
  ---------------------------------------------------
  alpha Z        PSCENC =         0.44838482
  Ewald energy   TEWEN  =        26.60306768
  -Hartree energ DENC   =      -386.12288633
  -exchange      EXHF   =         0.00000000
  -V(xc)+E(xc)   XCENC  =        32.24954641
  PAW double counting   =       350.81753176     -352.63395800
  entropy T*S    EENTRO =        -0.00000000
  eigenvalues    EBANDS =      -106.98966687
  atomic energy  EATOM  =       456.07488257
  Solvation  Ediel_sol  =         0.00000000
  ---------------------------------------------------
  free energy    TOTEN  =        20.44690205 eV

  energy without entropy =       20.44690205  energy(sigma->0) =       20.44690205


--------------------------------------------------------------------------------------------------------




--------------------------------------- Iteration      1(   6)  ---------------------------------------


    EDDIAG:  cpu time      0.0023: real time      0.0058
  RMM-DIIS:  cpu time      0.0054: real time      0.0057
    ORTHCH:  cpu time      0.0002: real time      0.0005
       DOS:  cpu time      0.0001: real time      0.0002
    --------------------------------------------
      LOOP:  cpu time      0.0079: real time      0.0122

 eigenvalue-minimisations  :     8
 total energy-change (2. order) :-0.1784921E+02  (-0.1200836E+02)
 number of electron       8.0000000 magnetization 
 augmentation part        8.0000000 magnetization 

 Free energy of the ion-electron system (eV)
  ---------------------------------------------------
  alpha Z        PSCENC =         0.44838482
  Ewald energy   TEWEN  =        26.60306768
  -Hartree energ DENC   =      -386.12288633
  -exchange      EXHF   =         0.00000000
  -V(xc)+E(xc)   XCENC  =        32.24954641
  PAW double counting   =       350.81753176     -352.63395800
  entropy T*S    EENTRO =        -0.00000000
  eigenvalues    EBANDS =      -124.83887217
  atomic energy  EATOM  =       456.07488257
  Solvation  Ediel_sol  =         0.00000000
  ---------------------------------------------------
  free energy    TOTEN  =         2.59769676 eV

  energy without entropy =        2.59769676  energy(sigma->0) =        2.59769676


--------------------------------------------------------------------------------------------------------




--------------------------------------- Iteration      1(   7)  ---------------------------------------


    EDDIAG:  cpu time      0.0022: real time      0.0057
  RMM-DIIS:  cpu time      0.0045: real time      0.0047
    ORTHCH:  cpu time      0.0003: real time      0.0006
       DOS:  cpu time      0.0001: real time      0.0004
    --------------------------------------------
      LOOP:  cpu time      0.0071: real time      0.0115

 eigenvalue-minimisations  :     8
 total energy-change (2. order) :-0.1157458E+02  (-0.3829877E+01)
 number of electron       8.0000000 magnetization 
 augmentation part        8.0000000 magnetization 

 Free energy of the ion-electron system (eV)
  ---------------------------------------------------
  alpha Z        PSCENC =         0.44838482
  Ewald energy   TEWEN  =        26.60306768
  -Hartree energ DENC   =      -386.12288633
  -exchange      EXHF   =         0.00000000
  -V(xc)+E(xc)   XCENC  =        32.24954641
  PAW double counting   =       350.81753176     -352.63395800
  entropy T*S    EENTRO =        -0.00000000
  eigenvalues    EBANDS =      -136.41345337
  atomic energy  EATOM  =       456.07488257
  Solvation  Ediel_sol  =         0.00000000
  ---------------------------------------------------
  free energy    TOTEN  =        -8.97688445 eV

  energy without entropy =       -8.97688445  energy(sigma->0) =       -8.97688445


--------------------------------------------------------------------------------------------------------




--------------------------------------- Iteration      1(   8)  ---------------------------------------


    EDDIAG:  cpu time      0.0024: real time      0.0070
  RMM-DIIS:  cpu time      0.0034: real time      0.0037
    ORTHCH:  cpu time      0.0001: real time      0.0004
       DOS:  cpu time      0.0000: real time      0.0002
    --------------------------------------------
      LOOP:  cpu time      0.0060: real time      0.0112

 eigenvalue-minimisations  :     8
 total energy-change (2. order) :-0.6122901E+01  (-0.6018680E+01)
 number of electron       8.0000000 magnetization 
 augmentation part        8.0000000 magnetization 

 Free energy of the ion-electron system (eV)
  ---------------------------------------------------
  alpha Z        PSCENC =         0.44838482
  Ewald energy   TEWEN  =        26.60306768
  -Hartree energ DENC   =      -386.12288633
  -exchange      EXHF   =         0.00000000
  -V(xc)+E(xc)   XCENC  =        32.24954641
  PAW double counting   =       350.81753176     -352.63395800
  entropy T*S    EENTRO =        -0.00000000
  eigenvalues    EBANDS =      -142.53635447
  atomic energy  EATOM  =       456.07488257
  Solvation  Ediel_sol  =         0.00000000
  ---------------------------------------------------
  free energy    TOTEN  =       -15.09978555 eV

  energy without entropy =      -15.09978555  energy(sigma->0) =      -15.09978555


--------------------------------------------------------------------------------------------------------




--------------------------------------- Iteration      1(   9)  ---------------------------------------


    EDDIAG:  cpu time      0.0038: real time      0.0076
  RMM-DIIS:  cpu time      0.0081: real time      0.0096
    ORTHCH:  cpu time      0.0002: real time      0.0005
       DOS:  cpu time      0.0001: real time      0.0003
    --------------------------------------------
      LOOP:  cpu time      0.0122: real time      0.0181

 eigenvalue-minimisations  :    17
 total energy-change (2. order) :-0.8934501E+00  (-0.8811833E+00)
 number of electron       8.0000000 magnetization 
 augmentation part        8.0000000 magnetization 

 Free energy of the ion-electron system (eV)
  ---------------------------------------------------
  alpha Z        PSCENC =         0.44838482
  Ewald energy   TEWEN  =        26.60306768
  -Hartree energ DENC   =      -386.12288633
  -exchange      EXHF   =         0.00000000
  -V(xc)+E(xc)   XCENC  =        32.24954641
  PAW double counting   =       350.81753176     -352.63395800
  entropy T*S    EENTRO =        -0.00000000
  eigenvalues    EBANDS =      -143.42980456
  atomic energy  EATOM  =       456.07488257
  Solvation  Ediel_sol  =         0.00000000
  ---------------------------------------------------
  free energy    TOTEN  =       -15.99323564 eV

  energy without entropy =      -15.99323564  energy(sigma->0) =      -15.99323564


--------------------------------------------------------------------------------------------------------




--------------------------------------- Iteration      1(  10)  ---------------------------------------


    EDDIAG:  cpu time      0.0033: real time      0.0077
  RMM-DIIS:  cpu time      0.0073: real time      0.0077
    ORTHCH:  cpu time      0.0002: real time      0.0006
       DOS:  cpu time      0.0001: real time      0.0004
    --------------------------------------------
      LOOP:  cpu time      0.0109: real time      0.0164

 eigenvalue-minimisations  :    16
 total energy-change (2. order) :-0.4377635E-01  (-0.4405394E-01)
 number of electron       8.0000000 magnetization 
 augmentation part        8.0000000 magnetization 

 Free energy of the ion-electron system (eV)
  ---------------------------------------------------
  alpha Z        PSCENC =         0.44838482
  Ewald energy   TEWEN  =        26.60306768
  -Hartree energ DENC   =      -386.12288633
  -exchange      EXHF   =         0.00000000
  -V(xc)+E(xc)   XCENC  =        32.24954641
  PAW double counting   =       350.81753176     -352.63395800
  entropy T*S    EENTRO =        -0.00000000
  eigenvalues    EBANDS =      -143.47358091
  atomic energy  EATOM  =       456.07488257
  Solvation  Ediel_sol  =         0.00000000
  ---------------------------------------------------
  free energy    TOTEN  =       -16.03701198 eV

  energy without entropy =      -16.03701198  energy(sigma->0) =      -16.03701198


--------------------------------------------------------------------------------------------------------




--------------------------------------- Iteration      1(  11)  ---------------------------------------


    EDDIAG:  cpu time      0.0043: real time      0.0085
  RMM-DIIS:  cpu time      0.0083: real time      0.0086
    ORTHCH:  cpu time      0.0002: real time      0.0005
       DOS:  cpu time      0.0001: real time      0.0003
    --------------------------------------------
      LOOP:  cpu time      0.0129: real time      0.0179

 eigenvalue-minimisations  :    16
 total energy-change (2. order) :-0.9536767E-02  (-0.9352691E-02)
 number of electron       8.0000000 magnetization 
 augmentation part        8.0000000 magnetization 

 Free energy of the ion-electron system (eV)
  ---------------------------------------------------
  alpha Z        PSCENC =         0.44838482
  Ewald energy   TEWEN  =        26.60306768
  -Hartree energ DENC   =      -386.12288633
  -exchange      EXHF   =         0.00000000
  -V(xc)+E(xc)   XCENC  =        32.24954641
  PAW double counting   =       350.81753176     -352.63395800
  entropy T*S    EENTRO =        -0.00000000
  eigenvalues    EBANDS =      -143.48311767
  atomic energy  EATOM  =       456.07488257
  Solvation  Ediel_sol  =         0.00000000
  ---------------------------------------------------
  free energy    TOTEN  =       -16.04654875 eV

  energy without entropy =      -16.04654875  energy(sigma->0) =      -16.04654875


--------------------------------------------------------------------------------------------------------




--------------------------------------- Iteration      1(  12)  ---------------------------------------


    EDDIAG:  cpu time      0.0032: real time      0.0077
  RMM-DIIS:  cpu time      0.0070: real time      0.0073
    ORTHCH:  cpu time      0.0002: real time      0.0004
       DOS:  cpu time      0.0001: real time      0.0002
    CHARGE:  cpu time      0.0019: real time      0.0020
    MIXING:  cpu time      0.0004: real time      0.0010
    --------------------------------------------
      LOOP:  cpu time      0.0127: real time      0.0187

 eigenvalue-minimisations  :    15
 total energy-change (2. order) :-0.1877100E-02  (-0.1872623E-02)
 number of electron       8.0001044 magnetization 
 augmentation part        0.7816467 magnetization 

 Broyden mixing:
  rms(total) = 0.74069E+00    rms(broyden)= 0.73659E+00
  rms(prec ) = 0.11075E+01
  weight for this iteration     100.00

 Free energy of the ion-electron system (eV)
  ---------------------------------------------------
  alpha Z        PSCENC =         0.44838482
  Ewald energy   TEWEN  =        26.60306768
  -Hartree energ DENC   =      -386.12288633
  -exchange      EXHF   =         0.00000000
  -V(xc)+E(xc)   XCENC  =        32.24954641
  PAW double counting   =       350.81753176     -352.63395800
  entropy T*S    EENTRO =        -0.00000000
  eigenvalues    EBANDS =      -143.48499477
  atomic energy  EATOM  =       456.07488257
  Solvation  Ediel_sol  =         0.00000000
  ---------------------------------------------------
  free energy    TOTEN  =       -16.04842585 eV

  energy without entropy =      -16.04842585  energy(sigma->0) =      -16.04842585


--------------------------------------------------------------------------------------------------------




--------------------------------------- Iteration      1(  13)  ---------------------------------------


    POTLOK:  cpu time      0.0101: real time      0.0159
    SETDIJ:  cpu time      0.0010: real time      0.0011
    EDDIAG:  cpu time      0.0042: real time      0.0044
  RMM-DIIS:  cpu time      0.0133: real time      0.0136
    ORTHCH:  cpu time      0.0002: real time      0.0005
       DOS:  cpu time      0.0001: real time      0.0003
    CHARGE:  cpu time      0.0015: real time      0.0016
    MIXING:  cpu time      0.0004: real time      0.0006
    --------------------------------------------
      LOOP:  cpu time      0.0307: real time      0.0378

 eigenvalue-minimisations  :    23
 total energy-change (2. order) : 0.1610142E+01  (-0.5399852E+00)
 number of electron       8.0000876 magnetization 
 augmentation part        0.6806802 magnetization 

 Broyden mixing:
  rms(total) = 0.34762E+00    rms(broyden)= 0.34711E+00
  rms(prec ) = 0.44624E+00
  weight for this iteration     100.00

 eigenvalues of (default mixing * dielectric matrix)
  average eigenvalue GAMMA=   1.0306
  1.0306

 Free energy of the ion-electron system (eV)
  ---------------------------------------------------
  alpha Z        PSCENC =         0.44838482
  Ewald energy   TEWEN  =        26.60306768
  -Hartree energ DENC   =      -407.95438797
  -exchange      EXHF   =         0.00000000
  -V(xc)+E(xc)   XCENC  =        33.47455416
  PAW double counting   =       478.86282692     -480.83625999
  entropy T*S    EENTRO =        -0.00000000
  eigenvalues    EBANDS =      -121.11135204
  atomic energy  EATOM  =       456.07488257
  Solvation  Ediel_sol  =         0.00000000
  ---------------------------------------------------
  free energy    TOTEN  =       -14.43828385 eV

  energy without entropy =      -14.43828385  energy(sigma->0) =      -14.43828385


--------------------------------------------------------------------------------------------------------




--------------------------------------- Iteration      1(  14)  ---------------------------------------


    POTLOK:  cpu time      0.0073: real time      0.0125
    SETDIJ:  cpu time      0.0008: real time      0.0010
    EDDIAG:  cpu time      0.0028: real time      0.0029
  RMM-DIIS:  cpu time      0.0059: real time      0.0062
    ORTHCH:  cpu time      0.0002: real time      0.0005
       DOS:  cpu time      0.0001: real time      0.0003
    CHARGE:  cpu time      0.0015: real time      0.0016
    MIXING:  cpu time      0.0004: real time      0.0006
    --------------------------------------------
      LOOP:  cpu time      0.0187: real time      0.0257

 eigenvalue-minimisations  :    16
 total energy-change (2. order) : 0.1471303E+00  (-0.7914230E-02)
 number of electron       8.0000866 magnetization 
 augmentation part        0.6741014 magnetization 

 Broyden mixing:
  rms(total) = 0.20006E+00    rms(broyden)= 0.20001E+00
  rms(prec ) = 0.26157E+00
  weight for this iteration     100.00

 eigenvalues of (default mixing * dielectric matrix)
  average eigenvalue GAMMA=   1.7595
  1.0621  2.4569

 Free energy of the ion-electron system (eV)
  ---------------------------------------------------
  alpha Z        PSCENC =         0.44838482
  Ewald energy   TEWEN  =        26.60306768
  -Hartree energ DENC   =      -413.30383511
  -exchange      EXHF   =         0.00000000
  -V(xc)+E(xc)   XCENC  =        33.75841428
  PAW double counting   =       556.69900526     -558.60789235
  entropy T*S    EENTRO =        -0.00000000
  eigenvalues    EBANDS =      -115.96318070
  atomic energy  EATOM  =       456.07488257
  Solvation  Ediel_sol  =         0.00000000
  ---------------------------------------------------
  free energy    TOTEN  =       -14.29115354 eV

  energy without entropy =      -14.29115354  energy(sigma->0) =      -14.29115354


--------------------------------------------------------------------------------------------------------




--------------------------------------- Iteration      1(  15)  ---------------------------------------


    POTLOK:  cpu time      0.0076: real time      0.0135
    SETDIJ:  cpu time      0.0005: real time      0.0007
    EDDIAG:  cpu time      0.0017: real time      0.0018
  RMM-DIIS:  cpu time      0.0088: real time      0.0090
    ORTHCH:  cpu time      0.0002: real time      0.0005
       DOS:  cpu time      0.0001: real time      0.0003
    CHARGE:  cpu time      0.0014: real time      0.0015
    MIXING:  cpu time      0.0005: real time      0.0006
    --------------------------------------------
      LOOP:  cpu time      0.0207: real time      0.0277

 eigenvalue-minimisations  :    17
 total energy-change (2. order) : 0.6850657E-01  (-0.1535476E-01)
 number of electron       8.0000850 magnetization 
 augmentation part        0.6638011 magnetization 

 Broyden mixing:
  rms(total) = 0.36770E-01    rms(broyden)= 0.36687E-01
  rms(prec ) = 0.64738E-01
  weight for this iteration     100.00

 eigenvalues of (default mixing * dielectric matrix)
  average eigenvalue GAMMA=   1.5736
  2.3414  0.9265  1.4530

 Free energy of the ion-electron system (eV)
  ---------------------------------------------------
  alpha Z        PSCENC =         0.44838482
  Ewald energy   TEWEN  =        26.60306768
  -Hartree energ DENC   =      -419.65534425
  -exchange      EXHF   =         0.00000000
  -V(xc)+E(xc)   XCENC  =        34.11559058
  PAW double counting   =       660.63008730     -662.45041448
  entropy T*S    EENTRO =        -0.00000000
  eigenvalues    EBANDS =      -109.98890119
  atomic energy  EATOM  =       456.07488257
  Solvation  Ediel_sol  =         0.00000000
  ---------------------------------------------------
  free energy    TOTEN  =       -14.22264697 eV

  energy without entropy =      -14.22264697  energy(sigma->0) =      -14.22264697


--------------------------------------------------------------------------------------------------------




--------------------------------------- Iteration      1(  16)  ---------------------------------------


    POTLOK:  cpu time      0.0093: real time      0.0140
    SETDIJ:  cpu time      0.0005: real time      0.0007
    EDDIAG:  cpu time      0.0019: real time      0.0021
  RMM-DIIS:  cpu time      0.0064: real time      0.0067
    ORTHCH:  cpu time      0.0002: real time      0.0005
       DOS:  cpu time      0.0001: real time      0.0002
    CHARGE:  cpu time      0.0018: real time      0.0019
    MIXING:  cpu time      0.0013: real time      0.0015
    --------------------------------------------
      LOOP:  cpu time      0.0215: real time      0.0277

 eigenvalue-minimisations  :    16
 total energy-change (2. order) :-0.7912965E-02  (-0.3143899E-02)
 number of electron       8.0000858 magnetization 
 augmentation part        0.6685913 magnetization 

 Broyden mixing:
  rms(total) = 0.17779E-01    rms(broyden)= 0.17765E-01
  rms(prec ) = 0.37748E-01
  weight for this iteration     100.00

 eigenvalues of (default mixing * dielectric matrix)
  average eigenvalue GAMMA=   1.7308
  0.9009  1.1661  2.4280  2.4280

 Free energy of the ion-electron system (eV)
  ---------------------------------------------------
  alpha Z        PSCENC =         0.44838482
  Ewald energy   TEWEN  =        26.60306768
  -Hartree energ DENC   =      -418.49409577
  -exchange      EXHF   =         0.00000000
  -V(xc)+E(xc)   XCENC  =        34.02228435
  PAW double counting   =       644.39585053     -646.19456898
  entropy T*S    EENTRO =        -0.00000000
  eigenvalues    EBANDS =      -111.08636516
  atomic energy  EATOM  =       456.07488257
  Solvation  Ediel_sol  =         0.00000000
  ---------------------------------------------------
  free energy    TOTEN  =       -14.23055994 eV

  energy without entropy =      -14.23055994  energy(sigma->0) =      -14.23055994


--------------------------------------------------------------------------------------------------------




--------------------------------------- Iteration      1(  17)  ---------------------------------------


    POTLOK:  cpu time      0.0070: real time      0.0126
    SETDIJ:  cpu time      0.0005: real time      0.0007
    EDDIAG:  cpu time      0.0031: real time      0.0032
  RMM-DIIS:  cpu time      0.0088: real time      0.0092
    ORTHCH:  cpu time      0.0002: real time      0.0007
       DOS:  cpu time      0.0001: real time      0.0004
    CHARGE:  cpu time      0.0018: real time      0.0020
    MIXING:  cpu time      0.0006: real time      0.0008
    --------------------------------------------
      LOOP:  cpu time      0.0221: real time      0.0294

 eigenvalue-minimisations  :    16
 total energy-change (2. order) :-0.6259706E-02  (-0.3562580E-03)
 number of electron       8.0000858 magnetization 
 augmentation part        0.6684427 magnetization 

 Broyden mixing:
  rms(total) = 0.18556E-01    rms(broyden)= 0.18555E-01
  rms(prec ) = 0.28054E-01
  weight for this iteration     100.00

 eigenvalues of (default mixing * dielectric matrix)
  average eigenvalue GAMMA=   1.9170
  3.6496  2.4996  0.9975  0.9975  1.4407

 Free energy of the ion-electron system (eV)
  ---------------------------------------------------
  alpha Z        PSCENC =         0.44838482
  Ewald energy   TEWEN  =        26.60306768
  -Hartree energ DENC   =      -419.43315420
  -exchange      EXHF   =         0.00000000
  -V(xc)+E(xc)   XCENC  =        34.05560694
  PAW double counting   =       644.77772662     -646.57021430
  entropy T*S    EENTRO =        -0.00000000
  eigenvalues    EBANDS =      -110.19311978
  atomic energy  EATOM  =       456.07488257
  Solvation  Ediel_sol  =         0.00000000
  ---------------------------------------------------
  free energy    TOTEN  =       -14.23681964 eV

  energy without entropy =      -14.23681964  energy(sigma->0) =      -14.23681964


--------------------------------------------------------------------------------------------------------




--------------------------------------- Iteration      1(  18)  ---------------------------------------


    POTLOK:  cpu time      0.0098: real time      0.0160
    SETDIJ:  cpu time      0.0007: real time      0.0009
    EDDIAG:  cpu time      0.0036: real time      0.0037
  RMM-DIIS:  cpu time      0.0076: real time      0.0079
    ORTHCH:  cpu time      0.0002: real time      0.0005
       DOS:  cpu time      0.0001: real time      0.0002
    CHARGE:  cpu time      0.0018: real time      0.0019
    MIXING:  cpu time      0.0008: real time      0.0009
    --------------------------------------------
      LOOP:  cpu time      0.0245: real time      0.0319

 eigenvalue-minimisations  :    16
 total energy-change (2. order) :-0.5352212E-02  (-0.1328762E-02)
 number of electron       8.0000851 magnetization 
 augmentation part        0.6644395 magnetization 

 Broyden mixing:
  rms(total) = 0.94554E-02    rms(broyden)= 0.94350E-02
  rms(prec ) = 0.14475E-01
  weight for this iteration     100.00

 eigenvalues of (default mixing * dielectric matrix)
  average eigenvalue GAMMA=   1.9706
  4.0123  2.6818  0.9375  0.9375  1.7754  1.4789

 Free energy of the ion-electron system (eV)
  ---------------------------------------------------
  alpha Z        PSCENC =         0.44838482
  Ewald energy   TEWEN  =        26.60306768
  -Hartree energ DENC   =      -420.36798268
  -exchange      EXHF   =         0.00000000
  -V(xc)+E(xc)   XCENC  =        34.09583560
  PAW double counting   =       644.51189714     -646.31344043
  entropy T*S    EENTRO =        -0.00000000
  eigenvalues    EBANDS =      -109.29481656
  atomic energy  EATOM  =       456.07488257
  Solvation  Ediel_sol  =         0.00000000
  ---------------------------------------------------
  free energy    TOTEN  =       -14.24217186 eV

  energy without entropy =      -14.24217186  energy(sigma->0) =      -14.24217186


--------------------------------------------------------------------------------------------------------




--------------------------------------- Iteration      1(  19)  ---------------------------------------


    POTLOK:  cpu time      0.0095: real time      0.0144
    SETDIJ:  cpu time      0.0007: real time      0.0009
    EDDIAG:  cpu time      0.0025: real time      0.0026
  RMM-DIIS:  cpu time      0.0113: real time      0.0116
    ORTHCH:  cpu time      0.0002: real time      0.0005
       DOS:  cpu time      0.0001: real time      0.0003
    CHARGE:  cpu time      0.0021: real time      0.0022
    MIXING:  cpu time      0.0008: real time      0.0010
    --------------------------------------------
      LOOP:  cpu time      0.0271: real time      0.0336

 eigenvalue-minimisations  :    16
 total energy-change (2. order) :-0.2833197E-02  (-0.2166744E-03)
 number of electron       8.0000853 magnetization 
 augmentation part        0.6652675 magnetization 

 Broyden mixing:
  rms(total) = 0.25944E-02    rms(broyden)= 0.25935E-02
  rms(prec ) = 0.37448E-02
  weight for this iteration     100.00

 eigenvalues of (default mixing * dielectric matrix)
  average eigenvalue GAMMA=   2.0192
  4.6428  2.8190  2.4314  1.3043  1.0011  1.0011  0.9345

 Free energy of the ion-electron system (eV)
  ---------------------------------------------------
  alpha Z        PSCENC =         0.44838482
  Ewald energy   TEWEN  =        26.60306768
  -Hartree energ DENC   =      -419.93708618
  -exchange      EXHF   =         0.00000000
  -V(xc)+E(xc)   XCENC  =        34.06844522
  PAW double counting   =       644.13332906     -645.92986255
  entropy T*S    EENTRO =        -0.00000000
  eigenvalues    EBANDS =      -109.70616568
  atomic energy  EATOM  =       456.07488257
  Solvation  Ediel_sol  =         0.00000000
  ---------------------------------------------------
  free energy    TOTEN  =       -14.24500505 eV

  energy without entropy =      -14.24500505  energy(sigma->0) =      -14.24500505


--------------------------------------------------------------------------------------------------------




--------------------------------------- Iteration      1(  20)  ---------------------------------------


    POTLOK:  cpu time      0.0102: real time      0.0160
    SETDIJ:  cpu time      0.0007: real time      0.0009
    EDDIAG:  cpu time      0.0028: real time      0.0030
  RMM-DIIS:  cpu time      0.0085: real time      0.0090
    ORTHCH:  cpu time      0.0002: real time      0.0005
       DOS:  cpu time      0.0001: real time      0.0003
    CHARGE:  cpu time      0.0020: real time      0.0021
    MIXING:  cpu time      0.0009: real time      0.0011
    --------------------------------------------
      LOOP:  cpu time      0.0254: real time      0.0327

 eigenvalue-minimisations  :    15
 total energy-change (2. order) :-0.7178309E-03  (-0.5346653E-04)
 number of electron       8.0000853 magnetization 
 augmentation part        0.6654545 magnetization 

 Broyden mixing:
  rms(total) = 0.12045E-02    rms(broyden)= 0.12032E-02
  rms(prec ) = 0.19287E-02
  weight for this iteration     100.00

 eigenvalues of (default mixing * dielectric matrix)
  average eigenvalue GAMMA=   2.2343
  5.4632  3.2221  2.6506  2.2341  1.4317  0.9653  0.9653  0.9424

 Free energy of the ion-electron system (eV)
  ---------------------------------------------------
  alpha Z        PSCENC =         0.44838482
  Ewald energy   TEWEN  =        26.60306768
  -Hartree energ DENC   =      -419.97010742
  -exchange      EXHF   =         0.00000000
  -V(xc)+E(xc)   XCENC  =        34.06995908
  PAW double counting   =       645.45821439     -647.25356272
  entropy T*S    EENTRO =        -0.00000000
  eigenvalues    EBANDS =      -109.67656129
  atomic energy  EATOM  =       456.07488257
  Solvation  Ediel_sol  =         0.00000000
  ---------------------------------------------------
  free energy    TOTEN  =       -14.24572288 eV

  energy without entropy =      -14.24572288  energy(sigma->0) =      -14.24572288


--------------------------------------------------------------------------------------------------------




--------------------------------------- Iteration      1(  21)  ---------------------------------------


    POTLOK:  cpu time      0.0104: real time      0.0155
    SETDIJ:  cpu time      0.0005: real time      0.0007
    EDDIAG:  cpu time      0.0019: real time      0.0021
  RMM-DIIS:  cpu time      0.0080: real time      0.0083
    ORTHCH:  cpu time      0.0002: real time      0.0005
       DOS:  cpu time      0.0001: real time      0.0003
    CHARGE:  cpu time      0.0018: real time      0.0019
    MIXING:  cpu time      0.0010: real time      0.0012
    --------------------------------------------
      LOOP:  cpu time      0.0240: real time      0.0304

 eigenvalue-minimisations  :    13
 total energy-change (2. order) :-0.4130294E-03  (-0.2067608E-04)
 number of electron       8.0000853 magnetization 
 augmentation part        0.6653267 magnetization 

 Broyden mixing:
  rms(total) = 0.68374E-03    rms(broyden)= 0.68115E-03
  rms(prec ) = 0.11070E-02
  weight for this iteration     100.00

 eigenvalues of (default mixing * dielectric matrix)
  average eigenvalue GAMMA=   2.2441
  6.0379  3.8618  2.6581  2.4171  1.3270  0.9351  0.9351  1.0123  1.0123

 Free energy of the ion-electron system (eV)
  ---------------------------------------------------
  alpha Z        PSCENC =         0.44838482
  Ewald energy   TEWEN  =        26.60306768
  -Hartree energ DENC   =      -419.96852713
  -exchange      EXHF   =         0.00000000
  -V(xc)+E(xc)   XCENC  =        34.06952110
  PAW double counting   =       645.26339797     -647.05948895
  entropy T*S    EENTRO =        -0.00000000
  eigenvalues    EBANDS =      -109.67737398
  atomic energy  EATOM  =       456.07488257
  Solvation  Ediel_sol  =         0.00000000
  ---------------------------------------------------
  free energy    TOTEN  =       -14.24613591 eV

  energy without entropy =      -14.24613591  energy(sigma->0) =      -14.24613591


--------------------------------------------------------------------------------------------------------




--------------------------------------- Iteration      1(  22)  ---------------------------------------


    POTLOK:  cpu time      0.0114: real time      0.0169
    SETDIJ:  cpu time      0.0008: real time      0.0011
    EDDIAG:  cpu time      0.0027: real time      0.0028
  RMM-DIIS:  cpu time      0.0081: real time      0.0084
    ORTHCH:  cpu time      0.0002: real time      0.0005
       DOS:  cpu time      0.0001: real time      0.0003
    --------------------------------------------
      LOOP:  cpu time      0.0232: real time      0.0298

 eigenvalue-minimisations  :    12
 total energy-change (2. order) :-0.9075967E-04  (-0.4711952E-05)
 number of electron       8.0000853 magnetization 
 augmentation part        0.6653267 magnetization 

 Free energy of the ion-electron system (eV)
  ---------------------------------------------------
  alpha Z        PSCENC =         0.44838482
  Ewald energy   TEWEN  =        26.60306768
  -Hartree energ DENC   =      -419.91240576
  -exchange      EXHF   =         0.00000000
  -V(xc)+E(xc)   XCENC  =        34.06643523
  PAW double counting   =       645.04103028     -646.83673472
  entropy T*S    EENTRO =        -0.00000000
  eigenvalues    EBANDS =      -109.73088676
  atomic energy  EATOM  =       456.07488257
  Solvation  Ediel_sol  =         0.00000000
  ---------------------------------------------------
  free energy    TOTEN  =       -14.24622667 eV

  energy without entropy =      -14.24622667  energy(sigma->0) =      -14.24622667


--------------------------------------------------------------------------------------------------------




 average (electrostatic) potential at core
  the test charge radii are     0.7215  0.5201
  (the norm of the test charge is              0.9999)
       1 -81.1205       2 -44.6520       3 -44.6517
 
 
 
 E-fermi :  -6.6015     XC(G=0):  -1.0001     alpha+bet : -0.2601

 Fermi energy:        -6.6015343629

 k-point     1 :       0.0000    0.0000    0.0000
  band No.  band energies     occupation 
      1     -25.4563      2.00000
      2     -13.1413      2.00000
      3      -9.1621      2.00000
      4      -7.1057      2.00000
      5      -1.0314      0.00000
      6       1.1586      0.00000
      7       1.6107      0.00000
      8       1.9842      0.00000


--------------------------------------------------------------------------------------------------------


 soft charge-density along one line, spin component           1
         0         1         2         3         4         5         6         7         8         9
 total charge-density along one line
 
 pseudopotential strength for first ion, spin component:           1
 13.851 -16.988   0.000  -0.000  -0.125  -0.000   0.000   0.157
-16.988  20.866  -0.000   0.000   0.159   0.000  -0.000  -0.200
  0.000  -0.000 -10.734  -0.000  -0.000  13.339   0.000   0.000
 -0.000   0.000  -0.000 -10.491  -0.000   0.000  13.014   0.000
 -0.125   0.159  -0.000  -0.000 -10.633   0.000   0.000  13.203
 -0.000   0.000  13.339   0.000   0.000 -16.511  -0.000  -0.000
  0.000  -0.000   0.000  13.014   0.000  -0.000 -16.073  -0.000
  0.157  -0.200   0.000   0.000  13.203  -0.000  -0.000 -16.329
 total augmentation occupancy for first ion, spin component:           1
  3.864   1.002  -0.000  -0.000   0.448  -0.000   0.000   0.194
  1.002   0.301  -0.000  -0.000   0.453  -0.000  -0.000   0.117
 -0.000  -0.000   2.864  -0.000  -0.000   0.690  -0.000  -0.000
 -0.000  -0.000  -0.000   2.661  -0.000   0.000   0.385  -0.000
  0.448   0.453  -0.000  -0.000   2.784   0.000   0.000   0.564
 -0.000  -0.000   0.690   0.000   0.000   0.166   0.000   0.000
  0.000  -0.000  -0.000   0.385   0.000   0.000   0.056   0.000
  0.194   0.117  -0.000  -0.000   0.564   0.000   0.000   0.117


------------------------ aborting loop because EDIFF is reached ----------------------------------------


    CHARGE:  cpu time      0.0026: real time      0.0026
    FORLOC:  cpu time      0.0009: real time      0.0009
    FORNL :  cpu time      0.0034: real time      0.0036
    STRESS:  cpu time      0.0121: real time      0.0121
    FORCOR:  cpu time      0.0100: real time      0.0102
    FORHAR:  cpu time      0.0042: real time      0.0044
    MIXING:  cpu time      0.0012: real time      0.0012
    OFIELD:  cpu time      0.0000: real time      0.0002

  FORCE on cell =-STRESS in cart. coord.  units (eV):
  Direction    XX          YY          ZZ          XY          YZ          ZX
  --------------------------------------------------------------------------------------
  Alpha Z     0.44838     0.44838     0.44838
  Ewald      12.60061    69.29602   -55.29360    -0.00000    -0.00000     0.00000
  Hartree   140.80700   150.24992   128.87137     0.00029     0.00002     0.00007
  E(xc)     -36.16021   -35.95343   -36.45625     0.00000     0.00000    -0.00000
  Local    -245.82693  -295.73615  -187.25091     0.00045     0.00013     0.00011
  n-local   -33.56656   -32.69321   -33.41545     0.00029     0.00006     0.00004
  augment     6.62513     5.65995     7.97745    -0.00014    -0.00003    -0.00004
  Kinetic   150.47475   134.95336   169.49820    -0.00106    -0.00023    -0.00036
  Fock        0.00000     0.00000     0.00000     0.00000     0.00000     0.00000
  -------------------------------------------------------------------------------------
  Total      -4.59781    -3.77516    -5.62081    -0.00017    -0.00004    -0.00018
  in kB     -14.72915   -12.09377   -18.00633    -0.00054    -0.00013    -0.00057
  external pressure =      -14.94 kB  Pullay stress =        0.00 kB


 VOLUME and BASIS-vectors are now :
 -----------------------------------------------------------------------------
  energy-cutoff  :      300.00
  volume of cell :      500.13
      direct lattice vectors                 reciprocal lattice vectors
     7.937700000  0.000000000  0.000000000     0.125981078  0.000000000  0.000000000
     0.000000000  7.937700000  0.000000000     0.000000000  0.125981078  0.000000000
     0.000000000  0.000000000  7.937700000     0.000000000  0.000000000  0.125981078

  length of vectors
     7.937700000  7.937700000  7.937700000     0.125981078  0.125981078  0.125981078


 FORCES acting on ions
    electron-ion (+dipol)            ewald-force                    non-local-force                 convergence-correction
 -----------------------------------------------------------------------------------------------
   0.640E+02 0.252E-02 0.247E-02   -.115E+03 0.142E-13 0.210E-16   0.498E+02 -.224E-02 -.117E-03   0.914E-02 0.311E-04 -.249E-02
   -.517E+02 0.728E+02 0.898E-04   0.574E+02 -.807E+02 0.133E-16   -.516E+01 0.720E+01 0.583E-05   0.152E-02 -.859E-03 -.121E-03
   -.517E+02 -.728E+02 0.104E-03   0.574E+02 0.807E+02 0.118E-16   -.516E+01 -.720E+01 0.172E-04   0.154E-02 0.914E-03 -.121E-03
 -----------------------------------------------------------------------------------------------
   -.395E+02 0.290E-02 0.267E-02   -.711E-14 0.000E+00 0.461E-16   0.395E+02 -.211E-02 -.944E-04   0.122E-01 0.858E-04 -.273E-02
 
 
 POSITION                                       TOTAL-FORCE (eV/Angst)
 -----------------------------------------------------------------------------------
      0.00000      0.00000      0.00000        -0.966499      0.000023     -0.000081
      0.58210      7.18097      0.00000         0.482956     -0.633453      0.000028
      0.58210      0.75673      0.00000         0.483542      0.633430      0.000053
 -----------------------------------------------------------------------------------
    total drift:                                0.003266      0.000870     -0.000160


--------------------------------------------------------------------------------------------------------



  FREE ENERGIE OF THE ION-ELECTRON SYSTEM (eV)
  ---------------------------------------------------
  free  energy   TOTEN  =       -14.24622667 eV

  energy  without entropy=      -14.24622667  energy(sigma->0) =      -14.24622667
 


--------------------------------------------------------------------------------------------------------


    POTLOK:  cpu time      0.0107: real time      0.0194


--------------------------------------------------------------------------------------------------------


 Quasi-Newton relaxation of ions (Broydens 2nd method)
  g(Force)  = 0.367E+00   g(Stress)= 0.000E+00

 Reset! Starting new Quasi-Newton update for ions 


--------------------------------------------------------------------------------------------------------


    WAVPRE:  cpu time      0.1968: real time      1.4120
    FEWALD:  cpu time      0.0001: real time      0.0002
    ORTHCH:  cpu time      0.0016: real time      0.0016
     LOOP+:  cpu time      0.6031: real time      1.9730


--------------------------------------- Iteration      2(   1)  ---------------------------------------


    POTLOK:  cpu time      0.0118: real time      0.0126
    SETDIJ:  cpu time      0.0010: real time      0.0012
    EDDIAG:  cpu time      0.0031: real time      0.0033
  RMM-DIIS:  cpu time      0.0109: real time      0.0112
    ORTHCH:  cpu time      0.0002: real time      0.0006
       DOS:  cpu time      0.0001: real time      0.0003
    CHARGE:  cpu time      0.0021: real time      0.0023
    MIXING:  cpu time      0.0007: real time      0.0008
    --------------------------------------------
      LOOP:  cpu time      0.0299: real time      0.0326

 eigenvalue-minimisations  :    16
 total energy-change (2. order) : 0.1321985E+01  (-0.2777037E+01)
 number of electron       8.0000806 magnetization 
 augmentation part        0.5811923 magnetization 

 Broyden mixing:
  rms(total) = 0.26970E+00    rms(broyden)= 0.26826E+00
  rms(prec ) = 0.34918E+00
  weight for this iteration     100.00

 Free energy of the ion-electron system (eV)
  ---------------------------------------------------
  alpha Z        PSCENC =         0.44838482
  Ewald energy   TEWEN  =       -10.02751330
  -Hartree energ DENC   =      -398.30148301
  -exchange      EXHF   =         0.00000000
  -V(xc)+E(xc)   XCENC  =        33.07144055
  PAW double counting   =       645.02602071     -646.82171022
  entropy T*S    EENTRO =        -0.00000000
  eigenvalues    EBANDS =       -92.39417257
  atomic energy  EATOM  =       456.07488257
  Solvation  Ediel_sol  =         0.00000000
  ---------------------------------------------------
  free energy    TOTEN  =       -12.92415045 eV

  energy without entropy =      -12.92415045  energy(sigma->0) =      -12.92415045


--------------------------------------------------------------------------------------------------------




--------------------------------------- Iteration      2(   2)  ---------------------------------------


    POTLOK:  cpu time      0.0134: real time      0.0205
    SETDIJ:  cpu time      0.0009: real time      0.0012
    EDDIAG:  cpu time      0.0033: real time      0.0034
  RMM-DIIS:  cpu time      0.0115: real time      0.0119
    ORTHCH:  cpu time      0.0002: real time      0.0006
       DOS:  cpu time      0.0001: real time      0.0003
    CHARGE:  cpu time      0.0018: real time      0.0020
    MIXING:  cpu time      0.0006: real time      0.0008
    --------------------------------------------
      LOOP:  cpu time      0.0319: real time      0.0407

 eigenvalue-minimisations  :    16
 total energy-change (2. order) :-0.1648892E-01  (-0.1584703E+00)
 number of electron       8.0000794 magnetization 
 augmentation part        0.5751315 magnetization 

 Broyden mixing:
  rms(total) = 0.16472E+00    rms(broyden)= 0.16455E+00
  rms(prec ) = 0.21309E+00
  weight for this iteration     100.00

 eigenvalues of (default mixing * dielectric matrix)
  average eigenvalue GAMMA=   2.1337
  2.1337

 Free energy of the ion-electron system (eV)
  ---------------------------------------------------
  alpha Z        PSCENC =         0.44838482
  Ewald energy   TEWEN  =       -10.02751330
  -Hartree energ DENC   =      -393.61810876
  -exchange      EXHF   =         0.00000000
  -V(xc)+E(xc)   XCENC  =        32.78431612
  PAW double counting   =       593.78757298     -595.51148112
  entropy T*S    EENTRO =        -0.00000000
  eigenvalues    EBANDS =       -96.87869268
  atomic energy  EATOM  =       456.07488257
  Solvation  Ediel_sol  =         0.00000000
  ---------------------------------------------------
  free energy    TOTEN  =       -12.94063936 eV

  energy without entropy =      -12.94063936  energy(sigma->0) =      -12.94063936


--------------------------------------------------------------------------------------------------------




--------------------------------------- Iteration      2(   3)  ---------------------------------------


    POTLOK:  cpu time      0.0118: real time      0.0188
    SETDIJ:  cpu time      0.0012: real time      0.0014
    EDDIAG:  cpu time      0.0040: real time      0.0043
  RMM-DIIS:  cpu time      0.0106: real time      0.0110
    ORTHCH:  cpu time      0.0005: real time      0.0008
       DOS:  cpu time      0.0001: real time      0.0004
    CHARGE:  cpu time      0.0033: real time      0.0035
    MIXING:  cpu time      0.0007: real time      0.0009
    --------------------------------------------
      LOOP:  cpu time      0.0322: real time      0.0411

 eigenvalue-minimisations  :    16
 total energy-change (2. order) :-0.4458351E-02  (-0.5053014E-01)
 number of electron       8.0000828 magnetization 
 augmentation part        0.5981764 magnetization 

 Broyden mixing:
  rms(total) = 0.93089E-01    rms(broyden)= 0.92607E-01
  rms(prec ) = 0.12461E+00
  weight for this iteration     100.00

 eigenvalues of (default mixing * dielectric matrix)
  average eigenvalue GAMMA=   1.2347
  0.7180  1.7515

 Free energy of the ion-electron system (eV)
  ---------------------------------------------------
  alpha Z        PSCENC =         0.44838482
  Ewald energy   TEWEN  =       -10.02751330
  -Hartree energ DENC   =      -387.49804453
  -exchange      EXHF   =         0.00000000
  -V(xc)+E(xc)   XCENC  =        32.43337508
  PAW double counting   =       531.77399220     -533.38766017
  entropy T*S    EENTRO =        -0.00000000
  eigenvalues    EBANDS =      -102.76251439
  atomic energy  EATOM  =       456.07488257
  Solvation  Ediel_sol  =         0.00000000
  ---------------------------------------------------
  free energy    TOTEN  =       -12.94509772 eV

  energy without entropy =      -12.94509772  energy(sigma->0) =      -12.94509772


--------------------------------------------------------------------------------------------------------




--------------------------------------- Iteration      2(   4)  ---------------------------------------


    POTLOK:  cpu time      0.0113: real time      0.0177
    SETDIJ:  cpu time      0.0006: real time      0.0009
    EDDIAG:  cpu time      0.0021: real time      0.0023
  RMM-DIIS:  cpu time      0.0114: real time      0.0117
    ORTHCH:  cpu time      0.0002: real time      0.0006
       DOS:  cpu time      0.0001: real time      0.0003
    CHARGE:  cpu time      0.0018: real time      0.0019
    MIXING:  cpu time      0.0009: real time      0.0010
    --------------------------------------------
      LOOP:  cpu time      0.0285: real time      0.0364

 eigenvalue-minimisations  :    16
 total energy-change (2. order) : 0.1517340E-01  (-0.6716630E-02)
 number of electron       8.0000814 magnetization 
 augmentation part        0.5893539 magnetization 

 Broyden mixing:
  rms(total) = 0.52395E-01    rms(broyden)= 0.52342E-01
  rms(prec ) = 0.62004E-01
  weight for this iteration     100.00

 eigenvalues of (default mixing * dielectric matrix)
  average eigenvalue GAMMA=   1.8685
  2.8262  1.9976  0.7816

 Free energy of the ion-electron system (eV)
  ---------------------------------------------------
  alpha Z        PSCENC =         0.44838482
  Ewald energy   TEWEN  =       -10.02751330
  -Hartree energ DENC   =      -389.37685015
  -exchange      EXHF   =         0.00000000
  -V(xc)+E(xc)   XCENC  =        32.53995106
  PAW double counting   =       538.40254276     -540.03853799
  entropy T*S    EENTRO =        -0.00000000
  eigenvalues    EBANDS =      -100.95278409
  atomic energy  EATOM  =       456.07488257
  Solvation  Ediel_sol  =         0.00000000
  ---------------------------------------------------
  free energy    TOTEN  =       -12.92992431 eV

  energy without entropy =      -12.92992431  energy(sigma->0) =      -12.92992431


--------------------------------------------------------------------------------------------------------




--------------------------------------- Iteration      2(   5)  ---------------------------------------


    POTLOK:  cpu time      0.0118: real time      0.0184
    SETDIJ:  cpu time      0.0006: real time      0.0008
    EDDIAG:  cpu time      0.0021: real time      0.0023
  RMM-DIIS:  cpu time      0.0114: real time      0.0117
    ORTHCH:  cpu time      0.0002: real time      0.0006
       DOS:  cpu time      0.0001: real time      0.0003
    CHARGE:  cpu time      0.0021: real time      0.0022
    MIXING:  cpu time      0.0008: real time      0.0010
    --------------------------------------------
      LOOP:  cpu time      0.0291: real time      0.0374

 eigenvalue-minimisations  :    16
 total energy-change (2. order) :-0.1301069E-01  (-0.1106242E-01)
 number of electron       8.0000793 magnetization 
 augmentation part        0.5754458 magnetization 

 Broyden mixing:
  rms(total) = 0.60442E-01    rms(broyden)= 0.60392E-01
  rms(prec ) = 0.85261E-01
  weight for this iteration     100.00

 eigenvalues of (default mixing * dielectric matrix)
  average eigenvalue GAMMA=   1.4413
  2.5039  1.3642  0.9487  0.9487

 Free energy of the ion-electron system (eV)
  ---------------------------------------------------
  alpha Z        PSCENC =         0.44838482
  Ewald energy   TEWEN  =       -10.02751330
  -Hartree energ DENC   =      -391.44711830
  -exchange      EXHF   =         0.00000000
  -V(xc)+E(xc)   XCENC  =        32.67043045
  PAW double counting   =       524.87860918     -526.50046772
  entropy T*S    EENTRO =        -0.00000000
  eigenvalues    EBANDS =       -99.04014271
  atomic energy  EATOM  =       456.07488257
  Solvation  Ediel_sol  =         0.00000000
  ---------------------------------------------------
  free energy    TOTEN  =       -12.94293500 eV

[...]
 -0.121   0.154  -0.002   0.000 -10.631   0.003  -0.000  13.202
  0.003  -0.004  13.334   0.000   0.003 -16.507  -0.000  -0.004
  0.000  -0.000   0.000  13.018  -0.000  -0.000 -16.080   0.000
  0.152  -0.194   0.003  -0.000  13.202  -0.004   0.000 -16.329
 total augmentation occupancy for first ion, spin component:           1
  3.807   0.969   0.020  -0.000   0.416   0.006  -0.000   0.182
  0.969   0.287   0.012   0.000   0.436   0.003  -0.000   0.112
  0.020   0.012   2.819   0.000   0.016   0.676   0.000   0.004
 -0.000   0.000   0.000   2.654   0.000   0.000   0.382   0.000
  0.416   0.436   0.016   0.000   2.749   0.005  -0.000   0.554
  0.006   0.003   0.676   0.000   0.005   0.162  -0.000   0.001
 -0.000  -0.000   0.000   0.382  -0.000  -0.000   0.055  -0.000
  0.182   0.112   0.004   0.000   0.554   0.001  -0.000   0.114


------------------------ aborting loop because EDIFF is reached ----------------------------------------


    CHARGE:  cpu time      0.0027: real time      0.0027
    FORLOC:  cpu time      0.0011: real time      0.0011
    FORNL :  cpu time      0.0050: real time      0.0052
    STRESS:  cpu time      0.0117: real time      0.0117
    FORCOR:  cpu time      0.0100: real time      0.0103
    FORHAR:  cpu time      0.0023: real time      0.0026
    MIXING:  cpu time      0.0005: real time      0.0005
    OFIELD:  cpu time      0.0000: real time      0.0002

  FORCE on cell =-STRESS in cart. coord.  units (eV):
  Direction    XX          YY          ZZ          XY          YZ          ZX
  --------------------------------------------------------------------------------------
  Alpha Z     0.44838     0.44838     0.44838
  Ewald      11.01854    67.62343   -55.30698     0.59907     0.00000    -0.00000
  Hartree   139.86212   149.58367   127.94558    -0.06655     0.00001    -0.00004
  E(xc)     -36.02624   -35.81394   -36.32015    -0.00028     0.00000    -0.00000
  Local    -243.68220  -294.21855  -186.03198    -0.17155     0.00001    -0.00008
  n-local   -33.14715   -32.25789   -33.19985    -0.09639     0.00001    -0.00004
  augment     6.58065     5.63338     7.92855    -0.00280    -0.00001     0.00003
  Kinetic   149.80084   134.09998   168.90759     0.09988    -0.00006     0.00026
  Fock        0.00000     0.00000     0.00000     0.00000     0.00000     0.00000
  -------------------------------------------------------------------------------------
  Total      -5.14507    -4.90155    -5.62886     0.36139    -0.00004     0.00012
  in kB     -16.48228   -15.70218   -18.03211     1.15770    -0.00012     0.00039
  external pressure =      -16.74 kB  Pullay stress =        0.00 kB


 VOLUME and BASIS-vectors are now :
 -----------------------------------------------------------------------------
  energy-cutoff  :      300.00
  volume of cell :      500.13
      direct lattice vectors                 reciprocal lattice vectors
     7.937700000  0.000000000  0.000000000     0.125981078  0.000000000  0.000000000
     0.000000000  7.937700000  0.000000000     0.000000000  0.125981078  0.000000000
     0.000000000  0.000000000  7.937700000     0.000000000  0.000000000  0.125981078

  length of vectors
     7.937700000  7.937700000  7.937700000     0.125981078  0.125981078  0.125981078


 FORCES acting on ions
    electron-ion (+dipol)            ewald-force                    non-local-force                 convergence-correction
 -----------------------------------------------------------------------------------------------
   0.613E+02 0.133E+01 -.291E-03   -.110E+03 -.246E+01 0.474E-16   0.490E+02 0.490E+00 0.393E-03   -.109E-01 0.503E-01 -.165E-03
   -.500E+02 0.706E+02 -.138E-04   0.544E+02 -.768E+02 0.464E-17   -.466E+01 0.657E+01 -.123E-05   -.801E-04 0.213E-02 -.316E-05
   -.508E+02 -.720E+02 -.627E-05   0.560E+02 0.792E+02 -.591E-17   -.495E+01 -.698E+01 0.835E-06   -.134E-02 0.408E-02 -.649E-05
 -----------------------------------------------------------------------------------------------
   -.394E+02 -.127E+00 -.311E-03   0.000E+00 0.000E+00 0.461E-16   0.394E+02 0.798E-01 0.393E-03   -.123E-01 0.565E-01 -.175E-03
 
 
 POSITION                                       TOTAL-FORCE (eV/Angst)
 -----------------------------------------------------------------------------------
      0.00000      0.00000      0.00000        -0.089427     -0.591838     -0.000032
      0.59592      7.16057      0.00000        -0.185890      0.363222      0.000013
      0.58492      0.76586      0.00000         0.275317      0.228616      0.000019
 -----------------------------------------------------------------------------------
    total drift:                               -0.009497      0.009096     -0.000093


--------------------------------------------------------------------------------------------------------



  FREE ENERGIE OF THE ION-ELECTRON SYSTEM (eV)
  ---------------------------------------------------
  free  energy   TOTEN  =       -14.25560901 eV

  energy  without entropy=      -14.25560901  energy(sigma->0) =      -14.25560901
 
 d Force =-0.1557855E-04[-0.964E-02, 0.960E-02]  d Energy = 0.1576328E-03-0.173E-03
 d Force = 0.2955085E+00[ 0.262E+00, 0.329E+00]  d Ewald  = 0.2954172E+00 0.913E-04


--------------------------------------------------------------------------------------------------------


    POTLOK:  cpu time      0.0125: real time      0.0229


--------------------------------------------------------------------------------------------------------


 Quasi-Newton relaxation of ions (Broydens 2nd method)
  g(Force)  = 0.853E-01   g(Stress)= 0.000E+00

 retain information from N=  3 steps
 eigenvalues of (default step * inverse Hessian matrix)
  average eigenvalue of G=   2.0807
 eigenvalue spectrum of G is  6.0854  0.0573  0.0993


--------------------------------------------------------------------------------------------------------


    WAVPRE:  cpu time      0.1791: real time      1.2858
    FEWALD:  cpu time      0.0002: real time      0.0003
    ORTHCH:  cpu time      0.0015: real time      0.0015
     LOOP+:  cpu time      0.3257: real time      1.4844


--------------------------------------- Iteration     12(   1)  ---------------------------------------


    POTLOK:  cpu time      0.0107: real time      0.0114
    SETDIJ:  cpu time      0.0009: real time      0.0011
    EDDIAG:  cpu time      0.0030: real time      0.0031
  RMM-DIIS:  cpu time      0.0101: real time      0.0104
    ORTHCH:  cpu time      0.0002: real time      0.0007
       DOS:  cpu time      0.0001: real time      0.0004
    CHARGE:  cpu time      0.0020: real time      0.0021
    MIXING:  cpu time      0.0006: real time      0.0008
    --------------------------------------------
      LOOP:  cpu time      0.0276: real time      0.0302

 eigenvalue-minimisations  :    16
 total energy-change (2. order) :-0.3321402E-02  (-0.7250407E-02)
 number of electron       8.0000873 magnetization 
 augmentation part        0.6573007 magnetization 

 Broyden mixing:
  rms(total) = 0.91555E-02    rms(broyden)= 0.90732E-02
  rms(prec ) = 0.11108E-01
  weight for this iteration     100.00

 Free energy of the ion-electron system (eV)
  ---------------------------------------------------
  alpha Z        PSCENC =         0.44838482
  Ewald energy   TEWEN  =        23.41021978
  -Hartree energ DENC   =      -417.44997253
  -exchange      EXHF   =         0.00000000
  -V(xc)+E(xc)   XCENC  =        33.94059578
  PAW double counting   =       632.78617705     -634.56192286
  entropy T*S    EENTRO =        -0.00000000
  eigenvalues    EBANDS =      -108.90727628
  atomic energy  EATOM  =       456.07488257
  Solvation  Ediel_sol  =         0.00000000
  ---------------------------------------------------
  free energy    TOTEN  =       -14.25891166 eV

  energy without entropy =      -14.25891166  energy(sigma->0) =      -14.25891166


--------------------------------------------------------------------------------------------------------




--------------------------------------- Iteration     12(   2)  ---------------------------------------


    POTLOK:  cpu time      0.0106: real time      0.0157
    SETDIJ:  cpu time      0.0008: real time      0.0010
    EDDIAG:  cpu time      0.0026: real time      0.0027
  RMM-DIIS:  cpu time      0.0093: real time      0.0096
    ORTHCH:  cpu time      0.0002: real time      0.0005
       DOS:  cpu time      0.0001: real time      0.0002
    CHARGE:  cpu time      0.0015: real time      0.0016
    MIXING:  cpu time      0.0004: real time      0.0005
    --------------------------------------------
      LOOP:  cpu time      0.0254: real time      0.0317

 eigenvalue-minimisations  :    15
 total energy-change (2. order) :-0.2310077E-03  (-0.2972917E-03)
 number of electron       8.0000873 magnetization 
 augmentation part        0.6571687 magnetization 

 Broyden mixing:
  rms(total) = 0.67576E-02    rms(broyden)= 0.67383E-02
  rms(prec ) = 0.81189E-02
  weight for this iteration     100.00

 eigenvalues of (default mixing * dielectric matrix)
  average eigenvalue GAMMA=   3.1893
  3.1893

 Free energy of the ion-electron system (eV)
  ---------------------------------------------------
  alpha Z        PSCENC =         0.44838482
  Ewald energy   TEWEN  =        23.41021978
  -Hartree energ DENC   =      -417.42570007
  -exchange      EXHF   =         0.00000000
  -V(xc)+E(xc)   XCENC  =        33.93904559
  PAW double counting   =       632.71541919     -634.48998984
  entropy T*S    EENTRO =        -0.00000000
  eigenvalues    EBANDS =      -108.93140472
  atomic energy  EATOM  =       456.07488257
  Solvation  Ediel_sol  =         0.00000000
  ---------------------------------------------------
  free energy    TOTEN  =       -14.25914267 eV

  energy without entropy =      -14.25914267  energy(sigma->0) =      -14.25914267


--------------------------------------------------------------------------------------------------------




--------------------------------------- Iteration     12(   3)  ---------------------------------------


    POTLOK:  cpu time      0.0110: real time      0.0161
    SETDIJ:  cpu time      0.0005: real time      0.0007
    EDDIAG:  cpu time      0.0020: real time      0.0021
  RMM-DIIS:  cpu time      0.0060: real time      0.0063
    ORTHCH:  cpu time      0.0002: real time      0.0006
       DOS:  cpu time      0.0001: real time      0.0004
    --------------------------------------------
      LOOP:  cpu time      0.0198: real time      0.0262

 eigenvalue-minimisations  :    15
 total energy-change (2. order) :-0.5959766E-05  (-0.4984236E-04)
 number of electron       8.0000873 magnetization 
 augmentation part        0.6571687 magnetization 

 Free energy of the ion-electron system (eV)
  ---------------------------------------------------
  alpha Z        PSCENC =         0.44838482
  Ewald energy   TEWEN  =        23.41021978
  -Hartree energ DENC   =      -417.37818300
  -exchange      EXHF   =         0.00000000
  -V(xc)+E(xc)   XCENC  =        33.93631611
  PAW double counting   =       632.57023080     -634.34174403
  entropy T*S    EENTRO =        -0.00000000
  eigenvalues    EBANDS =      -108.97925568
  atomic energy  EATOM  =       456.07488257
  Solvation  Ediel_sol  =         0.00000000
  ---------------------------------------------------
  free energy    TOTEN  =       -14.25914863 eV

  energy without entropy =      -14.25914863  energy(sigma->0) =      -14.25914863


--------------------------------------------------------------------------------------------------------




 average (electrostatic) potential at core
  the test charge radii are     0.7215  0.5201
  (the norm of the test charge is              1.0000)
       1 -81.1168       2 -44.4144       3 -44.4332
 
 
 
 E-fermi :  -6.5848     XC(G=0):  -1.0440     alpha+bet : -0.2601

 Fermi energy:        -6.5847789292

 k-point     1 :       0.0000    0.0000    0.0000
  band No.  band energies     occupation 
      1     -25.2859      2.00000
      2     -12.9532      2.00000
      3      -9.1746      2.00000
      4      -7.0759      2.00000
      5      -1.0886      0.00000
      6       1.0915      0.00000
      7       1.2470      0.00000
      8       1.7865      0.00000


--------------------------------------------------------------------------------------------------------


 soft charge-density along one line, spin component           1
         0         1         2         3         4         5         6         7         8         9
 total charge-density along one line
 
 pseudopotential strength for first ion, spin component:           1
 13.851 -16.987  -0.000  -0.000  -0.121   0.001   0.000   0.152
-16.987  20.866   0.001   0.000   0.154  -0.001  -0.000  -0.195
 -0.000   0.001 -10.731  -0.000  -0.000  13.337   0.000   0.000
 -0.000   0.000  -0.000 -10.498   0.000   0.000  13.023  -0.000
 -0.121   0.154  -0.000   0.000 -10.638   0.000  -0.000  13.211
  0.001  -0.001  13.337   0.000   0.000 -16.511  -0.000  -0.000
  0.000  -0.000   0.000  13.023  -0.000  -0.000 -16.088   0.000
  0.152  -0.195   0.000  -0.000  13.211  -0.000   0.000 -16.341
 total augmentation occupancy for first ion, spin component:           1
  3.807   0.968   0.002  -0.000   0.420   0.001  -0.000   0.184
  0.968   0.287   0.001  -0.000   0.439   0.000  -0.000   0.113
  0.002   0.001   2.814  -0.000   0.000   0.674   0.000  -0.000
 -0.000  -0.000  -0.000   2.654   0.000  -0.000   0.382   0.000
  0.420   0.439   0.000   0.000   2.752  -0.000  -0.000   0.557
  0.001   0.000   0.674  -0.000  -0.000   0.161   0.000  -0.000
 -0.000  -0.000   0.000   0.382  -0.000   0.000   0.055  -0.000
  0.184   0.113  -0.000   0.000   0.557  -0.000  -0.000   0.115


------------------------ aborting loop because EDIFF is reached ----------------------------------------


    CHARGE:  cpu time      0.0015: real time      0.0015
    FORLOC:  cpu time      0.0006: real time      0.0006
    FORNL :  cpu time      0.0021: real time      0.0021
    STRESS:  cpu time      0.0067: real time      0.0067
    FORCOR:  cpu time      0.0078: real time      0.0082
    FORHAR:  cpu time      0.0021: real time      0.0023
    MIXING:  cpu time      0.0004: real time      0.0004
    OFIELD:  cpu time      0.0000: real time      0.0002

  FORCE on cell =-STRESS in cart. coord.  units (eV):
  Direction    XX          YY          ZZ          XY          YZ          ZX
  --------------------------------------------------------------------------------------
  Alpha Z     0.44838     0.44838     0.44838
  Ewald      12.48996    66.22637   -55.30615    -0.04476    -0.00000    -0.00000
  Hartree   140.17201   149.31691   127.96208    -0.00664     0.00001    -0.00004
  E(xc)     -36.01902   -35.82048   -36.31980    -0.00072     0.00000    -0.00000
  Local    -245.10408  -292.88485  -186.07441     0.02818     0.00003    -0.00016
  n-local   -33.16917   -32.23336   -33.19553    -0.00149     0.00001    -0.00007
  augment     6.55722     5.64577     7.92690     0.00107    -0.00001     0.00005
  Kinetic   149.44275   134.51065   168.95068     0.01152    -0.00009     0.00046
  Fock        0.00000     0.00000     0.00000     0.00000     0.00000     0.00000
  -------------------------------------------------------------------------------------
  Total      -5.18195    -4.79061    -5.60784    -0.01284    -0.00005     0.00023
  in kB     -16.60045   -15.34679   -17.96478    -0.04113    -0.00015     0.00073
  external pressure =      -16.64 kB  Pullay stress =        0.00 kB


 VOLUME and BASIS-vectors are now :
 -----------------------------------------------------------------------------
  energy-cutoff  :      300.00
  volume of cell :      500.13
      direct lattice vectors                 reciprocal lattice vectors
     7.937700000  0.000000000  0.000000000     0.125981078  0.000000000  0.000000000
     0.000000000  7.937700000  0.000000000     0.000000000  0.125981078  0.000000000
     0.000000000  0.000000000  7.937700000     0.000000000  0.000000000  0.125981078

  length of vectors
     7.937700000  7.937700000  7.937700000     0.125981078  0.125981078  0.125981078


 FORCES acting on ions
    electron-ion (+dipol)            ewald-force                    non-local-force                 convergence-correction
 -----------------------------------------------------------------------------------------------
   0.623E+02 0.859E-01 0.775E-04   -.112E+03 -.936E-01 0.276E-16   0.494E+02 0.788E-01 0.696E-03   0.175E-01 -.911E-01 -.746E-03
   -.510E+02 0.709E+02 -.190E-04   0.559E+02 -.776E+02 0.615E-17   -.488E+01 0.672E+01 -.152E-04   0.995E-03 -.431E-02 -.323E-04
   -.509E+02 -.709E+02 -.110E-04   0.558E+02 0.777E+02 0.124E-16   -.487E+01 -.673E+01 -.113E-04   0.560E-02 0.363E-02 -.297E-04
 -----------------------------------------------------------------------------------------------
   -.396E+02 -.905E-02 0.476E-04   0.000E+00 0.000E+00 0.461E-16   0.396E+02 0.661E-01 0.670E-03   0.241E-01 -.918E-01 -.808E-03
 
 
 POSITION                                       TOTAL-FORCE (eV/Angst)
 -----------------------------------------------------------------------------------
      0.00000      0.00000      0.00000         0.001624     -0.008309      0.000058
      0.59746      7.17183      0.00000         0.004889      0.008700     -0.000036
      0.59616      0.76689      0.00000        -0.006514     -0.000391     -0.000022
 -----------------------------------------------------------------------------------
    total drift:                               -0.013309     -0.034753     -0.000091


--------------------------------------------------------------------------------------------------------



  FREE ENERGIE OF THE ION-ELECTRON SYSTEM (eV)
  ---------------------------------------------------
  free  energy   TOTEN  =       -14.25914863 eV

  energy  without entropy=      -14.25914863  energy(sigma->0) =      -14.25914863
 
 d Force = 0.3584646E-02[ 0.319E-04, 0.714E-02]  d Energy = 0.3539620E-02 0.450E-04
 d Force =-0.7519045E-01[-0.808E-01,-0.696E-01]  d Ewald  =-0.7518776E-01-0.268E-05


--------------------------------------------------------------------------------------------------------


    POTLOK:  cpu time      0.0088: real time      0.0185


--------------------------------------------------------------------------------------------------------


 Quasi-Newton relaxation of ions (Broydens 2nd method)
  g(Force)  = 0.412E-04   g(Stress)= 0.000E+00

 retain information from N=  1 steps
 eigenvalues of (default step * inverse Hessian matrix)
  average eigenvalue of G=   0.0835
 eigenvalue spectrum of G is  0.0835


--------------------------------------------------------------------------------------------------------


  
 reached required accuracy - stopping structural energy minimisation
 writing wavefunctions
     LOOP+:  cpu time      0.1066: real time      0.1659
    4ORBIT:  cpu time      0.0000: real time      0.0000

 total amount of memory used by VASP MPI-rank0    34926. kBytes
=======================================================================

   base      :      30000. kBytes
   nonlr-proj:         83. kBytes
   fftplans  :       1264. kBytes
   grid      :       3481. kBytes
   one-center:          4. kBytes
   wavefun   :         94. kBytes
 
  
  
 General timing and accounting informations for this job:
 ========================================================
  
                  Total CPU time used (sec):        3.430
                            User time (sec):        2.923
                          System time (sec):        0.508
                         Elapsed time (sec):        9.559
  
                   Maximum memory used (kb):      127448.
                   Average memory used (kb):          N/A
  
                          Minor page faults:        69407
                          Major page faults:         1193
                 Voluntary context switches:        55650
