Water                                   
           1
     7.937700    0.000000    0.000000
     0.000000    7.937700    0.000000
     0.000000    0.000000    7.937700
   O    H 
     1     2
Direct configuration=     1
   0.00000000  0.00000000  0.00000000
   0.07333333  0.90466667  0.00000000
   0.07333333  0.09533333  0.00000000
Direct configuration=     2
   0.00000000  0.00000000  0.00000000
   0.09094480  0.88156718  0.00000000
   0.09096617  0.11843199  0.00000000
Direct configuration=     3
   0.00000000  0.00000000  0.00000000
   0.07764100  0.90268350  0.00000000
   0.07765385  0.09731405  0.00000000
Direct configuration=     4
   0.00000000  0.00000000  0.00000000
   0.07115631  0.90347254  0.00000000
   0.07112713  0.09647766  0.00000000
Direct configuration=     5
   0.00000000  0.00000000  0.00000000
   0.07556986  0.90400975  0.00000000
   0.07578354  0.09626990  0.00000000
Direct configuration=     6
   0.00000000  0.00000000  0.00000000
   0.07609295  0.90056432  0.00000000
   0.07328902  0.09588736  0.00000000
Direct configuration=     7
   0.00000000  0.00000000  0.00000000
   0.07461338  0.90297534  0.00000000
   0.07487168  0.09741623  0.00000000
Direct configuration=     8
   0.00000000  0.00000000  0.00000000
   0.07431473  0.90746738  0.00000000
   0.07360843  0.09202411  0.00000000
Direct configuration=     9
   0.00000000  0.00000000  0.00000000
   0.07633395  0.90396659  0.00000000
   0.07608964  0.09611785  0.00000000
Direct configuration=    10
   0.00000000  0.00000000  0.00000000
   0.07329675  0.90322190  0.00000000
   0.07404886  0.09812506  0.00000000
Direct configuration=    11
   0.00000000  0.00000000  0.00000000
   0.07507479  0.90209595  0.00000000
   0.07368878  0.09648325  0.00000000
Direct configuration=    12
   0.00000000  0.00000000  0.00000000
   0.07526820  0.90351521  0.00000000
   0.07510442  0.09661391  0.00000000
