 vasp.5.4.4.18Apr17-6-g9f103f2a35 (build Jul 09 2021 13:05:15) complex          
  
 executed on             LinuxIFC date 2021.11.04  19:03:38
 running on   16 total cores
 distrk:  each k-point on   16 cores,    1 groups
 distr:  one band on NCORES_PER_BAND=   4 cores,    4 groups


--------------------------------------------------------------------------------------------------------


 INCAR:
 POTCAR:    PAW_PBE H 15Jun2001                   
 POTCAR:    PAW_PBE C 08Apr2002                   
 POTCAR:    PAW_PBE H 15Jun2001                   
   VRHFIN =H: ultrasoft test                                                    
   LEXCH  = PE                                                                  
   EATOM  =    12.4884 eV,    0.9179 Ry                                         
                                                                                
   TITEL  = PAW_PBE H 15Jun2001                                                 
   LULTRA =        F    use ultrasoft PP ?                                      
   IUNSCR =        0    unscreen: 0-lin 1-nonlin 2-no                           
   RPACOR =    0.000    partial core radius                                     
   POMASS =    1.000; ZVAL   =    1.000    mass and valenz                      
   RCORE  =    1.100    outmost cutoff radius                                   
   RWIGS  =    0.700; RWIGS  =    0.370    wigner-seitz radius (au A)           
   ENMAX  =  250.000; ENMIN  =  200.000 eV                                      
   RCLOC  =    0.701    cutoff for local pot                                    
   LCOR   =        T    correct aug charges                                     
   LPAW   =        T    paw PP                                                  
   EAUG   =  400.000                                                            
   RMAX   =    1.123    core radius for proj-oper                               
   RAUG   =    1.200    factor for augmentation sphere                          
   RDEP   =    1.112    radius for radial grids                                 
   RDEPT  =    0.926    core radius for aug-charge                              
                                                                                
   Atomic configuration                                                         
    2 entries                                                                   
     n  l   j            E        occ.                                          
     1  0  0.50        -6.4927   1.0000                                         
     2  1  0.50        -3.4015   0.0000                                         
   Description                                                                  
     l       E           TYP  RCUT    TYP  RCUT                                 
     0     -6.4927494     23  1.100                                             
     0      6.8029130     23  1.100                                             
     1     -4.0817478     23  1.100                                             
  local pseudopotential read in
  atomic valenz-charges read in
  non local Contribution for L=           0  read in
    real space projection operators read in
  non local Contribution for L=           0  read in
    real space projection operators read in
  non local Contribution for L=           1  read in
    real space projection operators read in
    PAW grid and wavefunctions read in
 
   number of l-projection  operators is LMAX  =           3
   number of lm-projection operators is LMMAX =           5
 
 POTCAR:    PAW_PBE C 08Apr2002                   
   VRHFIN =C: s2p2                                                              
   LEXCH  = PE                                                                  
   EATOM  =   147.1560 eV,   10.8157 Ry                                         
                                                                                
   TITEL  = PAW_PBE C 08Apr2002                                                 
   LULTRA =        F    use ultrasoft PP ?                                      
   IUNSCR =        1    unscreen: 0-lin 1-nonlin 2-no                           
   RPACOR =    1.200    partial core radius                                     
   POMASS =   12.011; ZVAL   =    4.000    mass and valenz                      
   RCORE  =    1.500    outmost cutoff radius                                   
   RWIGS  =    1.630; RWIGS  =    0.863    wigner-seitz radius (au A)           
   ENMAX  =  400.000; ENMIN  =  300.000 eV                                      
   ICORE  =        2    local potential                                         
   LCOR   =        T    correct aug charges                                     
   LPAW   =        T    paw PP                                                  
   EAUG   =  644.873                                                            
   DEXC   =    0.000                                                            
   RMAX   =    1.529    core radius for proj-oper                               
   RAUG   =    1.300    factor for augmentation sphere                          
   RDEP   =    1.501    radius for radial grids                                 
   RDEPT  =    1.300    core radius for aug-charge                              
                                                                                
   Atomic configuration                                                         
    4 entries                                                                   
     n  l   j            E        occ.                                          
     1  0  0.50      -273.3789   2.0000                                         
     2  0  0.50       -13.7508   2.0000                                         
     2  1  0.50        -5.2854   2.0000                                         
     3  2  1.50        -5.4423   0.0000                                         
   Description                                                                  
     l       E           TYP  RCUT    TYP  RCUT                                 
     0    -13.7508458     23  1.200                                             
     0     -8.2022199     23  1.200                                             
     1     -5.2854383     23  1.500                                             
     1     34.0145650     23  1.500                                             
     2     -5.4423304      7  1.500                                             
  local pseudopotential read in
  partial core-charges read in
  partial kinetic energy density read in
  atomic valenz-charges read in
  non local Contribution for L=           0  read in
    real space projection operators read in
  non local Contribution for L=           0  read in
    real space projection operators read in
  non local Contribution for L=           1  read in
    real space projection operators read in
  non local Contribution for L=           1  read in
    real space projection operators read in
    PAW grid and wavefunctions read in
 
   number of l-projection  operators is LMAX  =           4
   number of lm-projection operators is LMMAX =           8
 
  PAW_PBE H 15Jun2001                   :
 energy of atom  1       EATOM=  -12.4884
 kinetic energy error for atom=    0.0098 (will be added to EATOM!!)
  PAW_PBE C 08Apr2002                   :
 energy of atom  2       EATOM= -147.1560
 kinetic energy error for atom=    0.0288 (will be added to EATOM!!)
 
 
 POSCAR:  H  C                                   
  positions in cartesian coordinates
  No initial velocities read in
 exchange correlation table for  LEXCH =        8
   RHO(1)=    0.500       N(1)  =     2000
   RHO(2)=  100.500       N(2)  =     4000
 


--------------------------------------------------------------------------------------------------------


 ion  position               nearest neighbor table
   1  0.538  0.407  0.361-   5 1.08
   2  0.394  0.480  0.439-   5 1.10
   3  0.552  0.566  0.443-   5 1.08
   4  0.528  0.417  0.539-   5 1.09
   5  0.503  0.467  0.445-   3 1.08   1 1.08   4 1.09   2 1.10
 

IMPORTANT INFORMATION: All symmetrisations will be switched off!
NOSYMM: (Re-)initialisation of all symmetry stuff for point group C_1.

 
 

Automatic generation of k-mesh.
 generate k-points for:    2    2    2
Space group operators:
 irot       det(A)        alpha          n_x          n_y          n_z        tau_x        tau_y        tau_z
    1     1.000000     0.000001     1.000000     0.000000     0.000000     0.000000     0.000000     0.000000
 
 Subroutine IBZKPT returns following result:
 ===========================================
 
 Found      4 irreducible k-points:
 
 Following reciprocal coordinates:
            Coordinates               Weight
  0.250000  0.250000  0.250000      2.000000
 -0.250000  0.250000  0.250000      2.000000
  0.250000 -0.250000  0.250000      2.000000
 -0.250000 -0.250000  0.250000      2.000000
 
 Following cartesian coordinates:
            Coordinates               Weight
  0.025135  0.025886  0.024251      2.000000
 -0.025135  0.024839  0.025577      2.000000
  0.025135 -0.024839  0.024860      2.000000
 -0.025135 -0.025886  0.026186      2.000000
 


--------------------------------------------------------------------------------------------------------




 Dimension of arrays:
   k-points           NKPTS =      4   k-points in BZ     NKDIM =      4   number of bands    NBANDS=      8
   number of dos      NEDOS =    301   number of ions     NIONS =      5
   non local maximal  LDIM  =      4   non local SUM 2l+1 LMDIM =      8
   total plane-waves  NPLWV = 313600
   max r-space proj   IRMAX =      1   max aug-charges    IRDMAX=   4007
   dimension x,y,z NGX =    70 NGY =   64 NGZ =   70
   dimension x,y,z NGXF=   140 NGYF=  128 NGZF=  140
   support grid    NGXF=   140 NGYF=  128 NGZF=  140
   ions per type =               4   1
   NGX,Y,Z   is equivalent  to a cutoff of  11.70, 10.79, 11.73 a.u.
   NGXF,Y,Z  is equivalent  to a cutoff of  23.40, 21.58, 23.47 a.u.

 SYSTEM =  unknown system                          
 POSCAR =   H  C                                   

 Startparameter for this run:
   NWRITE =      2    write-flag & timer
   PREC   = a         normal or accurate (medium, high low for compatibility)
   ISTART =      0    job   : 0-new  1-cont  2-samecut
   ICHARG =      2    charge: 1-file 2-atom 10-const
   ISPIN  =      1    spin polarized calculation?
   LNONCOLLINEAR =      F non collinear calculations
   LSORBIT =      F    spin-orbit coupling
   INIWAV =      1    electr: 0-lowe 1-rand  2-diag
   LASPH  =      F    aspherical Exc in radial PAW
   METAGGA=      F    non-selfconsistent MetaGGA calc.

 Electronic Relaxation 1
   ENCUT  =  400.0 eV  29.40 Ry    5.42 a.u.  16.22 16.08 16.17*2*pi/ulx,y,z
   ENINI  =  400.0     initial cutoff
   ENAUG  =  644.9 eV  augmentation charge cutoff
   NELM   =    120;   NELMIN=  4; NELMDL= -5     # of ELM steps 
   EDIFF  = 0.1E-05   stopping-criterion for ELM
   LREAL  =      F    real-space projection
   NLSPLINE    = F    spline interpolate recip. space projectors
   LCOMPAT=      F    compatible to vasp.4.4
   GGA_COMPAT  = T    GGA compatible to vasp.4.4-vasp.4.6
   LMAXPAW     = -100 max onsite density
   LMAXMIX     =    2 max onsite mixed and CHGCAR
   VOSKOWN=      0    Vosko Wilk Nusair interpolation
   ROPT   =    0.00000   0.00000
 Ionic relaxation
   EDIFFG = 0.1E-04   stopping-criterion for IOM
   NSW    =     10    number of steps for IOM
   NBLOCK =      1;   KBLOCK =     10    inner block; outer block 
   IBRION =      0    ionic relax: 0-MD 1-quasi-New 2-CG
   NFREE  =      0    steps in history (QN), initial steepest desc. (CG)
   ISIF   =      2    stress and relaxation
   IWAVPR =     12    prediction:  0-non 1-charg 2-wave 3-comb
   ISYM   =      0    0-nonsym 1-usesym 2-fastsym
   LCORR  =      T    Harris-Foulkes like correction to forces

   POTIM  = 0.5000    time-step for ionic-motion
   TEIN   =    0.0    initial temperature
   TEBEG  =    0.0;   TEEND  =   0.0 temperature during run
   SMASS  =  -3.00    Nose mass-parameter (am)
   estimated Nose-frequenzy (Omega)   =  0.10E-29 period in steps =****** mass=  -0.226E-26a.u.
   SCALEE = 1.0000    scale energy and forces
   NPACO  =    256;   APACO  = 16.0  distance and # of slots for P.C.
   PSTRESS=    0.0 pullay stress

  Mass of Ions in am
   POMASS =   1.00 12.01
  Ionic Valenz
   ZVAL   =   1.00  4.00
  Atomic Wigner-Seitz radii
   RWIGS  =  -1.00 -1.00
  virtual crystal weights 
   VCA    =   1.00  1.00
   NELECT =       8.0000    total number of electrons
   NUPDOWN=      -1.0000    fix difference up-down

 DOS related values:
   EMIN   =  10.00;   EMAX   =-10.00  energy-range for DOS
   EFERMI =   0.00
   ISMEAR =     0;   SIGMA  =   0.20  broadening in eV -4-tet -1-fermi 0-gaus

 Electronic relaxation 2 (details)
   IALGO  =     68    algorithm
   LDIAG  =      T    sub-space diagonalisation (order eigenvalues)
   LSUBROT=      F    optimize rotation matrix (better conditioning)
   TURBO    =      0    0=normal 1=particle mesh
   IRESTART =      0    0=no restart 2=restart with 2 vectors
   NREBOOT  =      0    no. of reboots
   NMIN     =      0    reboot dimension
   EREF     =   0.00    reference energy to select bands
   IMIX   =      4    mixing-type and parameters
     AMIX     =   0.40;   BMIX     =  1.00
     AMIX_MAG =   1.60;   BMIX_MAG =  1.00
     AMIN     =   0.10
     WC   =   100.;   INIMIX=   1;  MIXPRE=   1;  MAXMIX= -45

 Intra band minimization:
   WEIMIN = 0.0010     energy-eigenvalue tresh-hold
   EBREAK =  0.31E-07  absolut break condition
   DEPER  =   0.30     relativ break condition  

   TIME   =   0.40     timestep for ELM

  volume/ion in A,a.u.               =     194.39      1311.78
  Fermi-wavevector in a.u.,A,eV,Ry     =   0.330542  0.624634  1.486545  0.109258
  Thomas-Fermi vector in A             =   1.225934
 
 Write flags
   LWAVE        =      F    write WAVECAR
   LDOWNSAMPLE  =      F    k-point downsampling of WAVECAR
   LCHARG       =      F    write CHGCAR
   LVTOT        =      F    write LOCPOT, total local potential
   LVHAR        =      F    write LOCPOT, Hartree potential only
   LELF         =      F    write electronic localiz. function (ELF)
   LORBIT       =      0    0 simple, 1 ext, 2 COOP (PROOUT), +10 PAW based schemes


 Dipole corrections
   LMONO  =      F    monopole corrections only (constant potential shift)
   LDIPOL =      F    correct potential (dipole corrections)
   IDIPOL =      0    1-x, 2-y, 3-z, 4-all directions 
   EPSILON=  1.0000000 bulk dielectric constant

 Exchange correlation treatment:
   GGA     =    --    GGA type
   LEXCH   =     8    internal setting for exchange type
   VOSKOWN=      0    Vosko Wilk Nusair interpolation
   LHFCALC =     F    Hartree Fock is set to
   LHFONE  =     F    Hartree Fock one center treatment
   AEXX    =    0.0000 exact exchange contribution

 Linear response parameters
   LEPSILON=     F    determine dielectric tensor
   LRPA    =     F    only Hartree local field effects (RPA)
   LNABLA  =     F    use nabla operator in PAW spheres
   LVEL    =     F    velocity operator in full k-point grid
   LINTERFAST=   F  fast interpolation
   KINTER  =     0    interpolate to denser k-point grid
   CSHIFT  =0.1000    complex shift for real part using Kramers Kronig
   OMEGAMAX=  -1.0    maximum frequency
   DEG_THRESHOLD= 0.2000000E-02 threshold for treating states as degnerate
   RTIME   =   -0.100 relaxation time in fs
  (WPLASMAI=    0.000 imaginary part of plasma frequency in eV, 0.658/RTIME)
   DFIELD  = 0.0000000 0.0000000 0.0000000 field for delta impulse in time
 
 Orbital magnetization related:
   ORBITALMAG=     F  switch on orbital magnetization
   LCHIMAG   =     F  perturbation theory with respect to B field
   DQ        =  0.001000  dq finite difference perturbation B field
   LLRAUG    =     F  two centre corrections for induced B field



--------------------------------------------------------------------------------------------------------


 molecular dynamics for ions
   using a microcanonical ensemble
 charge density and potential will be updated during run
 non-spin polarized calculation
 RMM-DIIS sequential band-by-band and
  variant of blocked Davidson during initial phase
 perform sub-space diagonalisation
    before iterative eigenvector-optimisation
 modified Broyden-mixing scheme, WC =      100.0
 initial mixing is a Kerker type mixing with AMIX =  0.4000 and BMIX =      1.0000
 Hartree-type preconditioning will be used
 using additional bands            4
 reciprocal scheme for non local part
 use partial core corrections
 calculate Harris-corrections to forces 
   (improved forces if not selfconsistent)
 use gradient corrections 
 use of overlap-Matrix (Vanderbilt PP)
 Gauss-broadening in eV      SIGMA  =   0.20


--------------------------------------------------------------------------------------------------------


  energy-cutoff  :      400.00
  volume of cell :      971.93
      direct lattice vectors                 reciprocal lattice vectors
     9.946191502  0.000000000  0.000000000     0.100540996  0.002093945 -0.002651918
    -0.205294739  9.857249296  0.000000000     0.000000000  0.101448180 -0.001218569
     0.259000375  0.119077047  9.913388765     0.000000000  0.000000000  0.100873679

  length of vectors
     9.946191502  9.859386878  9.917486442     0.100597759  0.101455498  0.100873679


 
 k-points in units of 2pi/SCALE and weight: read from INCAR                         
   0.02513525  0.02588553  0.02425080       0.250
  -0.02513525  0.02483856  0.02557676       0.250
   0.02513525 -0.02483856  0.02486008       0.250
  -0.02513525 -0.02588553  0.02618604       0.250
 
 k-points in reciprocal lattice and weights: read from INCAR                         
   0.25000000  0.25000000  0.25000000       0.250
  -0.25000000  0.25000000  0.25000000       0.250
   0.25000000 -0.25000000  0.25000000       0.250
  -0.25000000 -0.25000000  0.25000000       0.250
 
 position of ions in fractional coordinates (direct lattice) 
   0.53786471  0.40681807  0.36051931
   0.39449322  0.48037350  0.43856020
   0.55224287  0.56564265  0.44264431
   0.52846137  0.41703940  0.53933356
   0.50316254  0.46666443  0.44482243
 
 position of ions in cartesian coordinates  (Angst):
   5.35956242  4.05303673  3.57396810
   3.93867422  4.78738377  4.34761773
   5.49123491  5.62838939  4.38810512
   5.31024956  4.17508354  5.34662330
   5.02395639  4.65299581  4.40969764
 


--------------------------------------------------------------------------------------------------------


 k-point  1 :   0.2500 0.2500 0.2500  plane waves:   17658
 k-point  2 :  -0.2500 0.2500 0.2500  plane waves:   17664
 k-point  3 :   0.2500-0.2500 0.2500  plane waves:   17667
 k-point  4 :  -0.2500-0.2500 0.2500  plane waves:   17627

 maximum and minimum number of plane-waves per node :      4446     4384

 maximum number of plane-waves:     17667
 maximum index in each direction: 
   IXMAX=   16   IYMAX=   16   IZMAX=   15
   IXMIN=  -16   IYMIN=  -16   IZMIN=  -16


 parallel 3D FFT for wavefunctions:
    minimum data exchange during FFTs selected (reduces bandwidth)
 parallel 3D FFT for charge:
    minimum data exchange during FFTs selected (reduces bandwidth)


 total amount of memory used by VASP MPI-rank0    53422. kBytes
=======================================================================

   base      :      30000. kBytes
   nonl-proj :       2633. kBytes
   fftplans  :       7845. kBytes
   grid      :      12367. kBytes
   one-center:          6. kBytes
   wavefun   :        571. kBytes
 
     INWAV:  cpu time    0.0000: real time    0.0001
 Broyden mixing: mesh for mixing (old mesh)
   NGX = 33   NGY = 33   NGZ = 33
  (NGX  =140   NGY  =128   NGZ  =140)
  gives a total of  35937 points

 initial charge density was supplied:
 charge density of overlapping atoms calculated
 number of electron       8.0000000 magnetization 
 keeping initial charge density in first step


--------------------------------------------------------------------------------------------------------


 Maximum index for augmentation-charges          180 (set IRDMAX)


--------------------------------------------------------------------------------------------------------


 First call to EWALD:  gamma=   0.179
 Maximum number of real-space cells 3x 3x 3
 Maximum number of reciprocal cells 3x 3x 3

    FEWALD:  cpu time    0.0020: real time    0.0020


--------------------------------------- Iteration      1(   1)  ---------------------------------------


    POTLOK:  cpu time    0.1400: real time    0.1420
    SETDIJ:  cpu time    0.0030: real time    0.0031
     EDDAV:  cpu time    0.2135: real time    0.2146
       DOS:  cpu time    0.0003: real time    0.0003
    --------------------------------------------
      LOOP:  cpu time    0.3569: real time    0.3600

 eigenvalue-minimisations  :   104
 total energy-change (2. order) : 0.1191514E+02  (-0.2059608E+03)
 number of electron       8.0000000 magnetization 
 augmentation part        8.0000000 magnetization 

 Free energy of the ion-electron system (eV)
  ---------------------------------------------------
  alpha Z        PSCENC =         0.24924733
  Ewald energy   TEWEN  =       129.74977759
  -Hartree energ DENC   =      -243.96394401
  -exchange      EXHF   =         0.00000000
  -V(xc)+E(xc)   XCENC  =        22.06353345
  PAW double counting   =       117.05815612     -117.66307307
  entropy T*S    EENTRO =        -0.00395832
  eigenvalues    EBANDS =       -92.61635320
  atomic energy  EATOM  =       197.04175453
  Solvation  Ediel_sol  =         0.00000000
  ---------------------------------------------------
  free energy    TOTEN  =        11.91514042 eV

  energy without entropy =       11.91909874  energy(sigma->0) =       11.91711958


--------------------------------------------------------------------------------------------------------




--------------------------------------- Iteration      1(   2)  ---------------------------------------


     EDDAV:  cpu time    0.1629: real time    0.1656
       DOS:  cpu time    0.0003: real time    0.0003
    --------------------------------------------
      LOOP:  cpu time    0.1632: real time    0.1659

 eigenvalue-minimisations  :    72
 total energy-change (2. order) :-0.3538209E+02  (-0.3533094E+02)
 number of electron       8.0000000 magnetization 
 augmentation part        8.0000000 magnetization 

 Free energy of the ion-electron system (eV)
  ---------------------------------------------------
  alpha Z        PSCENC =         0.24924733
  Ewald energy   TEWEN  =       129.74977759
  -Hartree energ DENC   =      -243.96394401
  -exchange      EXHF   =         0.00000000
  -V(xc)+E(xc)   XCENC  =        22.06353345
  PAW double counting   =       117.05815612     -117.66307307
  entropy T*S    EENTRO =        -0.00000000
  eigenvalues    EBANDS =      -128.00240234
  atomic energy  EATOM  =       197.04175453
  Solvation  Ediel_sol  =         0.00000000
  ---------------------------------------------------
  free energy    TOTEN  =       -23.46695040 eV

  energy without entropy =      -23.46695040  energy(sigma->0) =      -23.46695040


--------------------------------------------------------------------------------------------------------




--------------------------------------- Iteration      1(   3)  ---------------------------------------


     EDDAV:  cpu time    0.2124: real time    0.2135
       DOS:  cpu time    0.0002: real time    0.0011
    --------------------------------------------
      LOOP:  cpu time    0.2126: real time    0.2146

 eigenvalue-minimisations  :    64
 total energy-change (2. order) :-0.4038919E+01  (-0.4038919E+01)
 number of electron       8.0000000 magnetization 
 augmentation part        8.0000000 magnetization 

 Free energy of the ion-electron system (eV)
  ---------------------------------------------------
  alpha Z        PSCENC =         0.24924733
  Ewald energy   TEWEN  =       129.74977759
  -Hartree energ DENC   =      -243.96394401
  -exchange      EXHF   =         0.00000000
  -V(xc)+E(xc)   XCENC  =        22.06353345
  PAW double counting   =       117.05815612     -117.66307307
  entropy T*S    EENTRO =        -0.00000000
  eigenvalues    EBANDS =      -132.04132102
  atomic energy  EATOM  =       197.04175453
  Solvation  Ediel_sol  =         0.00000000
  ---------------------------------------------------
  free energy    TOTEN  =       -27.50586908 eV

  energy without entropy =      -27.50586908  energy(sigma->0) =      -27.50586908


--------------------------------------------------------------------------------------------------------




--------------------------------------- Iteration      1(   4)  ---------------------------------------


     EDDAV:  cpu time    0.2445: real time    0.2464
       DOS:  cpu time    0.0002: real time    0.0002
    --------------------------------------------
      LOOP:  cpu time    0.2447: real time    0.2466

 eigenvalue-minimisations  :   128
 total energy-change (2. order) :-0.1770882E+00  (-0.1770882E+00)
 number of electron       8.0000000 magnetization 
 augmentation part        8.0000000 magnetization 

 Free energy of the ion-electron system (eV)
  ---------------------------------------------------
  alpha Z        PSCENC =         0.24924733
  Ewald energy   TEWEN  =       129.74977759
  -Hartree energ DENC   =      -243.96394401
  -exchange      EXHF   =         0.00000000
  -V(xc)+E(xc)   XCENC  =        22.06353345
  PAW double counting   =       117.05815612     -117.66307307
  entropy T*S    EENTRO =        -0.00000000
  eigenvalues    EBANDS =      -132.21840921
  atomic energy  EATOM  =       197.04175453
  Solvation  Ediel_sol  =         0.00000000
  ---------------------------------------------------
  free energy    TOTEN  =       -27.68295727 eV

  energy without entropy =      -27.68295727  energy(sigma->0) =      -27.68295727


--------------------------------------------------------------------------------------------------------




--------------------------------------- Iteration      1(   5)  ---------------------------------------


     EDDAV:  cpu time    0.1942: real time    0.1954
       DOS:  cpu time    0.0005: real time    0.0005
    CHARGE:  cpu time    0.0213: real time    0.0214
    MIXING:  cpu time    0.0049: real time    0.0049
    --------------------------------------------
      LOOP:  cpu time    0.2209: real time    0.2222

 eigenvalue-minimisations  :    96
 total energy-change (2. order) :-0.5587155E-04  (-0.5587156E-04)
 number of electron       8.0000002 magnetization 
 augmentation part        0.2288607 magnetization 

 Broyden mixing:
  rms(total) = 0.88948E+00    rms(broyden)= 0.88930E+00
  rms(prec ) = 0.12698E+01
  weight for this iteration     100.00

 Free energy of the ion-electron system (eV)
  ---------------------------------------------------
  alpha Z        PSCENC =         0.24924733
  Ewald energy   TEWEN  =       129.74977759
  -Hartree energ DENC   =      -243.96394401
  -exchange      EXHF   =         0.00000000
  -V(xc)+E(xc)   XCENC  =        22.06353345
  PAW double counting   =       117.05815612     -117.66307307
  entropy T*S    EENTRO =        -0.00000000
  eigenvalues    EBANDS =      -132.21846508
  atomic energy  EATOM  =       197.04175453
  Solvation  Ediel_sol  =         0.00000000
  ---------------------------------------------------
  free energy    TOTEN  =       -27.68301314 eV

  energy without entropy =      -27.68301314  energy(sigma->0) =      -27.68301314


--------------------------------------------------------------------------------------------------------




--------------------------------------- Iteration      1(   6)  ---------------------------------------


    POTLOK:  cpu time    0.1351: real time    0.1361
    SETDIJ:  cpu time    0.0024: real time    0.0024
    EDDIAG:  cpu time    0.0412: real time    0.0416
  RMM-DIIS:  cpu time    0.1559: real time    0.1567
    ORTHCH:  cpu time    0.0017: real time    0.0017
       DOS:  cpu time    0.0002: real time    0.0002
    CHARGE:  cpu time    0.0192: real time    0.0193
    MIXING:  cpu time    0.0053: real time    0.0053
    --------------------------------------------
      LOOP:  cpu time    0.3609: real time    0.3632

 eigenvalue-minimisations  :    64
 total energy-change (2. order) : 0.3006945E+01  (-0.5625088E+00)
 number of electron       8.0000002 magnetization 
 augmentation part        0.2017055 magnetization 

 Broyden mixing:
  rms(total) = 0.43701E+00    rms(broyden)= 0.43693E+00
  rms(prec ) = 0.57171E+00
  weight for this iteration     100.00

 eigenvalues of (default mixing * dielectric matrix)
  average eigenvalue GAMMA=   1.3127
  1.3127

 Free energy of the ion-electron system (eV)
  ---------------------------------------------------
  alpha Z        PSCENC =         0.24924733
  Ewald energy   TEWEN  =       129.74977759
  -Hartree energ DENC   =      -264.07865633
  -exchange      EXHF   =         0.00000000
  -V(xc)+E(xc)   XCENC  =        23.28383890
  PAW double counting   =       241.65622178     -242.44138004
  entropy T*S    EENTRO =        -0.00000000
  eigenvalues    EBANDS =      -110.13687142
  atomic energy  EATOM  =       197.04175453
  Solvation  Ediel_sol  =         0.00000000
  ---------------------------------------------------
  free energy    TOTEN  =       -24.67606765 eV

  energy without entropy =      -24.67606765  energy(sigma->0) =      -24.67606765


--------------------------------------------------------------------------------------------------------




--------------------------------------- Iteration      1(   7)  ---------------------------------------


    POTLOK:  cpu time    0.1356: real time    0.1367
    SETDIJ:  cpu time    0.0027: real time    0.0027
    EDDIAG:  cpu time    0.0370: real time    0.0372
  RMM-DIIS:  cpu time    0.1475: real time    0.1504
    ORTHCH:  cpu time    0.0024: real time    0.0024
       DOS:  cpu time    0.0002: real time    0.0002
    CHARGE:  cpu time    0.0167: real time    0.0168
    MIXING:  cpu time    0.0052: real time    0.0053
    --------------------------------------------
      LOOP:  cpu time    0.3472: real time    0.3516

 eigenvalue-minimisations  :    64
 total energy-change (2. order) : 0.5144164E+00  (-0.1320847E+00)
 number of electron       8.0000002 magnetization 
 augmentation part        0.1907799 magnetization 

 Broyden mixing:
  rms(total) = 0.23114E+00    rms(broyden)= 0.23109E+00
  rms(prec ) = 0.28030E+00
  weight for this iteration     100.00

 eigenvalues of (default mixing * dielectric matrix)
  average eigenvalue GAMMA=   1.8455
  1.4698  2.2212

 Free energy of the ion-electron system (eV)
  ---------------------------------------------------
  alpha Z        PSCENC =         0.24924733
  Ewald energy   TEWEN  =       129.74977759
  -Hartree energ DENC   =      -276.14908830
  -exchange      EXHF   =         0.00000000
  -V(xc)+E(xc)   XCENC  =        24.16729600
  PAW double counting   =       374.31348982     -375.14112771
  entropy T*S    EENTRO =        -0.00000000
  eigenvalues    EBANDS =       -98.39300055
  atomic energy  EATOM  =       197.04175453
  Solvation  Ediel_sol  =         0.00000000
  ---------------------------------------------------
  free energy    TOTEN  =       -24.16165129 eV

  energy without entropy =      -24.16165129  energy(sigma->0) =      -24.16165129


--------------------------------------------------------------------------------------------------------




--------------------------------------- Iteration      1(   8)  ---------------------------------------


    POTLOK:  cpu time    0.1322: real time    0.1334
    SETDIJ:  cpu time    0.0023: real time    0.0024
    EDDIAG:  cpu time    0.0360: real time    0.0361
  RMM-DIIS:  cpu time    0.1522: real time    0.1530
    ORTHCH:  cpu time    0.0021: real time    0.0021
       DOS:  cpu time    0.0002: real time    0.0002
    CHARGE:  cpu time    0.0174: real time    0.0175
    MIXING:  cpu time    0.0052: real time    0.0052
    --------------------------------------------
      LOOP:  cpu time    0.3476: real time    0.3499

 eigenvalue-minimisations  :    64
 total energy-change (2. order) : 0.1480013E+00  (-0.1620314E-01)
 number of electron       8.0000002 magnetization 
 augmentation part        0.1893791 magnetization 

 Broyden mixing:
  rms(total) = 0.22406E-01    rms(broyden)= 0.22387E-01
  rms(prec ) = 0.53595E-01
  weight for this iteration     100.00

 eigenvalues of (default mixing * dielectric matrix)
  average eigenvalue GAMMA=   1.5551
  2.2483  0.9964  1.4204

 Free energy of the ion-electron system (eV)
  ---------------------------------------------------
  alpha Z        PSCENC =         0.24924733
  Ewald energy   TEWEN  =       129.74977759
  -Hartree energ DENC   =      -281.55269533
  -exchange      EXHF   =         0.00000000
  -V(xc)+E(xc)   XCENC  =        24.70367299
  PAW double counting   =       487.55214367     -488.34721175
  entropy T*S    EENTRO =        -0.00000000
  eigenvalues    EBANDS =       -93.41033906
  atomic energy  EATOM  =       197.04175453
  Solvation  Ediel_sol  =         0.00000000
  ---------------------------------------------------
  free energy    TOTEN  =       -24.01365003 eV

  energy without entropy =      -24.01365003  energy(sigma->0) =      -24.01365003


--------------------------------------------------------------------------------------------------------




--------------------------------------- Iteration      1(   9)  ---------------------------------------


    POTLOK:  cpu time    0.1332: real time    0.1344
    SETDIJ:  cpu time    0.0025: real time    0.0025
    EDDIAG:  cpu time    0.0366: real time    0.0368
  RMM-DIIS:  cpu time    0.1555: real time    0.1566
    ORTHCH:  cpu time    0.0019: real time    0.0019
       DOS:  cpu time    0.0002: real time    0.0002
    CHARGE:  cpu time    0.0176: real time    0.0176
    MIXING:  cpu time    0.0056: real time    0.0057
    --------------------------------------------
      LOOP:  cpu time    0.3530: real time    0.3556

 eigenvalue-minimisations  :    64
 total energy-change (2. order) : 0.5729210E-02  (-0.1132284E-02)
 number of electron       8.0000002 magnetization 
 augmentation part        0.1887945 magnetization 

 Broyden mixing:
  rms(total) = 0.19843E-01    rms(broyden)= 0.19840E-01
  rms(prec ) = 0.41216E-01
  weight for this iteration     100.00

 eigenvalues of (default mixing * dielectric matrix)
  average eigenvalue GAMMA=   2.1090
  3.1585  2.8882  1.0015  1.3877

 Free energy of the ion-electron system (eV)
  ---------------------------------------------------
  alpha Z        PSCENC =         0.24924733
  Ewald energy   TEWEN  =       129.74977759
  -Hartree energ DENC   =      -282.83578009
  -exchange      EXHF   =         0.00000000
  -V(xc)+E(xc)   XCENC  =        24.77541540
  PAW double counting   =       491.55057852     -492.34823661
  entropy T*S    EENTRO =        -0.00000000
  eigenvalues    EBANDS =       -92.19067749
  atomic energy  EATOM  =       197.04175453
  Solvation  Ediel_sol  =         0.00000000
  ---------------------------------------------------
  free energy    TOTEN  =       -24.00792082 eV

  energy without entropy =      -24.00792082  energy(sigma->0) =      -24.00792082


--------------------------------------------------------------------------------------------------------




--------------------------------------- Iteration      1(  10)  ---------------------------------------


    POTLOK:  cpu time    0.1306: real time    0.1336
    SETDIJ:  cpu time    0.0023: real time    0.0024
    EDDIAG:  cpu time    0.0371: real time    0.0372
  RMM-DIIS:  cpu time    0.1525: real time    0.1537
    ORTHCH:  cpu time    0.0027: real time    0.0027
       DOS:  cpu time    0.0003: real time    0.0003
    CHARGE:  cpu time    0.0175: real time    0.0176
    MIXING:  cpu time    0.0058: real time    0.0058
    --------------------------------------------
      LOOP:  cpu time    0.3487: real time    0.3533

 eigenvalue-minimisations  :    64
 total energy-change (2. order) : 0.5908268E-02  (-0.2412322E-02)
 number of electron       8.0000002 magnetization 
 augmentation part        0.1877472 magnetization 

 Broyden mixing:
  rms(total) = 0.28301E-01    rms(broyden)= 0.28299E-01
  rms(prec ) = 0.36006E-01
  weight for this iteration     100.00

 eigenvalues of (default mixing * dielectric matrix)
  average eigenvalue GAMMA=   1.7797
  3.0734  2.4557  1.1991  1.1991  0.9711

 Free energy of the ion-electron system (eV)
  ---------------------------------------------------
  alpha Z        PSCENC =         0.24924733
  Ewald energy   TEWEN  =       129.74977759
  -Hartree energ DENC   =      -285.04082003
  -exchange      EXHF   =         0.00000000
  -V(xc)+E(xc)   XCENC  =        24.84455139
  PAW double counting   =       474.80749355     -475.60879577
  entropy T*S    EENTRO =        -0.00000000
  eigenvalues    EBANDS =       -90.04522116
  atomic energy  EATOM  =       197.04175453
  Solvation  Ediel_sol  =         0.00000000
  ---------------------------------------------------
  free energy    TOTEN  =       -24.00201255 eV

  energy without entropy =      -24.00201255  energy(sigma->0) =      -24.00201255


--------------------------------------------------------------------------------------------------------




--------------------------------------- Iteration      1(  11)  ---------------------------------------


    POTLOK:  cpu time    0.1309: real time    0.1316
    SETDIJ:  cpu time    0.0029: real time    0.0029
    EDDIAG:  cpu time    0.0381: real time    0.0383
  RMM-DIIS:  cpu time    0.1506: real time    0.1514
    ORTHCH:  cpu time    0.0022: real time    0.0022
       DOS:  cpu time    0.0002: real time    0.0002
    CHARGE:  cpu time    0.0176: real time    0.0176
    MIXING:  cpu time    0.0058: real time    0.0058
    --------------------------------------------
      LOOP:  cpu time    0.3483: real time    0.3500

 eigenvalue-minimisations  :    64
 total energy-change (2. order) :-0.4974149E-03  (-0.6805529E-03)
 number of electron       8.0000002 magnetization 
 augmentation part        0.1880717 magnetization 

 Broyden mixing:
  rms(total) = 0.66464E-02    rms(broyden)= 0.66437E-02
  rms(prec ) = 0.13054E-01
  weight for this iteration     100.00

 eigenvalues of (default mixing * dielectric matrix)
  average eigenvalue GAMMA=   2.2844
  4.8412  3.1174  2.4339  1.3091  1.0024  1.0024

 Free energy of the ion-electron system (eV)
  ---------------------------------------------------
  alpha Z        PSCENC =         0.24924733
  Ewald energy   TEWEN  =       129.74977759
  -Hartree energ DENC   =      -284.94128767
  -exchange      EXHF   =         0.00000000
  -V(xc)+E(xc)   XCENC  =        24.85848647
  PAW double counting   =       484.10425478     -484.89842230
  entropy T*S    EENTRO =        -0.00000000
  eigenvalues    EBANDS =       -90.16632070
  atomic energy  EATOM  =       197.04175453
  Solvation  Ediel_sol  =         0.00000000
  ---------------------------------------------------
  free energy    TOTEN  =       -24.00250997 eV

  energy without entropy =      -24.00250997  energy(sigma->0) =      -24.00250997


--------------------------------------------------------------------------------------------------------




--------------------------------------- Iteration      1(  12)  ---------------------------------------


    POTLOK:  cpu time    0.1200: real time    0.1206
    SETDIJ:  cpu time    0.0025: real time    0.0025
    EDDIAG:  cpu time    0.0372: real time    0.0374
  RMM-DIIS:  cpu time    0.1525: real time    0.1533
    ORTHCH:  cpu time    0.0019: real time    0.0019
       DOS:  cpu time    0.0002: real time    0.0002
    CHARGE:  cpu time    0.0175: real time    0.0176
    MIXING:  cpu time    0.0060: real time    0.0060
    --------------------------------------------
      LOOP:  cpu time    0.3378: real time    0.3395

 eigenvalue-minimisations  :    64
 total energy-change (2. order) :-0.1003563E-01  (-0.4437134E-03)
 number of electron       8.0000002 magnetization 
 augmentation part        0.1883423 magnetization 

 Broyden mixing:
  rms(total) = 0.13155E-01    rms(broyden)= 0.13153E-01
  rms(prec ) = 0.17185E-01
  weight for this iteration     100.00

 eigenvalues of (default mixing * dielectric matrix)
  average eigenvalue GAMMA=   2.0205
  4.8242  2.9404  2.4399  1.2654  0.9921  0.9921  0.6892

 Free energy of the ion-electron system (eV)
  ---------------------------------------------------
  alpha Z        PSCENC =         0.24924733
  Ewald energy   TEWEN  =       129.74977759
  -Hartree energ DENC   =      -285.11755847
  -exchange      EXHF   =         0.00000000
  -V(xc)+E(xc)   XCENC  =        24.85055172
  PAW double counting   =       481.65393256     -482.44623112
  entropy T*S    EENTRO =        -0.00000000
  eigenvalues    EBANDS =       -89.99401973
  atomic energy  EATOM  =       197.04175453
  Solvation  Ediel_sol  =         0.00000000
  ---------------------------------------------------
  free energy    TOTEN  =       -24.01254560 eV

  energy without entropy =      -24.01254560  energy(sigma->0) =      -24.01254560


--------------------------------------------------------------------------------------------------------




--------------------------------------- Iteration      1(  13)  ---------------------------------------


    POTLOK:  cpu time    0.1206: real time    0.1225
    SETDIJ:  cpu time    0.0025: real time    0.0025
    EDDIAG:  cpu time    0.0354: real time    0.0360
  RMM-DIIS:  cpu time    0.1535: real time    0.1543
    ORTHCH:  cpu time    0.0018: real time    0.0018
       DOS:  cpu time    0.0002: real time    0.0002
    CHARGE:  cpu time    0.0171: real time    0.0172
    MIXING:  cpu time    0.0063: real time    0.0064
    --------------------------------------------
      LOOP:  cpu time    0.3373: real time    0.3408

 eigenvalue-minimisations  :    64
 total energy-change (2. order) :-0.3443812E-03  (-0.7869412E-04)
 number of electron       8.0000002 magnetization 
 augmentation part        0.1881305 magnetization 

 Broyden mixing:
  rms(total) = 0.63208E-02    rms(broyden)= 0.63208E-02
  rms(prec ) = 0.83108E-02
  weight for this iteration     100.00

 eigenvalues of (default mixing * dielectric matrix)
  average eigenvalue GAMMA=   2.4184
  6.1175  4.0336  2.5500  2.3380  1.2193  1.2193  1.0002  0.8691

 Free energy of the ion-electron system (eV)
  ---------------------------------------------------
  alpha Z        PSCENC =         0.24924733
  Ewald energy   TEWEN  =       129.74977759
  -Hartree energ DENC   =      -285.29976816
  -exchange      EXHF   =         0.00000000
  -V(xc)+E(xc)   XCENC  =        24.85611796
  PAW double counting   =       481.49582939     -482.29044000
  entropy T*S    EENTRO =        -0.00000000
  eigenvalues    EBANDS =       -89.81540863
  atomic energy  EATOM  =       197.04175453
  Solvation  Ediel_sol  =         0.00000000
  ---------------------------------------------------
  free energy    TOTEN  =       -24.01288998 eV

  energy without entropy =      -24.01288998  energy(sigma->0) =      -24.01288998


--------------------------------------------------------------------------------------------------------




--------------------------------------- Iteration      1(  14)  ---------------------------------------


    POTLOK:  cpu time    0.1187: real time    0.1201
    SETDIJ:  cpu time    0.0025: real time    0.0025
    EDDIAG:  cpu time    0.0364: real time    0.0365
  RMM-DIIS:  cpu time    0.1408: real time    0.1486
    ORTHCH:  cpu time    0.0024: real time    0.0024
       DOS:  cpu time    0.0002: real time    0.0002
    CHARGE:  cpu time    0.0166: real time    0.0167
    MIXING:  cpu time    0.0066: real time    0.0066
    --------------------------------------------
      LOOP:  cpu time    0.3241: real time    0.3336

 eigenvalue-minimisations  :    64
 total energy-change (2. order) :-0.2811866E-02  (-0.2139611E-03)
 number of electron       8.0000002 magnetization 
 augmentation part        0.1879055 magnetization 

 Broyden mixing:
  rms(total) = 0.46764E-02    rms(broyden)= 0.46747E-02
  rms(prec ) = 0.61112E-02
  weight for this iteration     100.00

 eigenvalues of (default mixing * dielectric matrix)
  average eigenvalue GAMMA=   2.3079
  6.4211  4.1345  2.4429  2.4429  1.1963  1.1963  0.9612  0.9612  1.0150

 Free energy of the ion-electron system (eV)
  ---------------------------------------------------
  alpha Z        PSCENC =         0.24924733
  Ewald energy   TEWEN  =       129.74977759
  -Hartree energ DENC   =      -285.36322476
  -exchange      EXHF   =         0.00000000
  -V(xc)+E(xc)   XCENC  =        24.84848348
  PAW double counting   =       480.45547999     -481.25239494
  entropy T*S    EENTRO =        -0.00000000
  eigenvalues    EBANDS =       -89.74482507
  atomic energy  EATOM  =       197.04175453
  Solvation  Ediel_sol  =         0.00000000
  ---------------------------------------------------
  free energy    TOTEN  =       -24.01570185 eV

  energy without entropy =      -24.01570185  energy(sigma->0) =      -24.01570185


--------------------------------------------------------------------------------------------------------




--------------------------------------- Iteration      1(  15)  ---------------------------------------


    POTLOK:  cpu time    0.1180: real time    0.1187
    SETDIJ:  cpu time    0.0025: real time    0.0025
    EDDIAG:  cpu time    0.0355: real time    0.0357
  RMM-DIIS:  cpu time    0.1517: real time    0.1542
    ORTHCH:  cpu time    0.0018: real time    0.0018
       DOS:  cpu time    0.0002: real time    0.0002
    CHARGE:  cpu time    0.0174: real time    0.0174
    MIXING:  cpu time    0.0065: real time    0.0066
    --------------------------------------------
      LOOP:  cpu time    0.3336: real time    0.3370

 eigenvalue-minimisations  :    64
 total energy-change (2. order) :-0.1804908E-03  (-0.1653352E-04)
 number of electron       8.0000002 magnetization 
 augmentation part        0.1879258 magnetization 

 Broyden mixing:
  rms(total) = 0.14475E-02    rms(broyden)= 0.14474E-02
  rms(prec ) = 0.18806E-02
  weight for this iteration     100.00

 eigenvalues of (default mixing * dielectric matrix)
  average eigenvalue GAMMA=   2.5235
  7.4089  4.8553  2.9620  2.5321  1.9718  1.3084  1.3084  1.0003  1.0003  0.8873

 Free energy of the ion-electron system (eV)
  ---------------------------------------------------
  alpha Z        PSCENC =         0.24924733
  Ewald energy   TEWEN  =       129.74977759
  -Hartree energ DENC   =      -285.27511772
  -exchange      EXHF   =         0.00000000
  -V(xc)+E(xc)   XCENC  =        24.84485227
  PAW double counting   =       480.60608197     -481.40171152
  entropy T*S    EENTRO =        -0.00000000
  eigenvalues    EBANDS =       -89.83076679
  atomic energy  EATOM  =       197.04175453
  Solvation  Ediel_sol  =         0.00000000
  ---------------------------------------------------
  free energy    TOTEN  =       -24.01588234 eV

  energy without entropy =      -24.01588234  energy(sigma->0) =      -24.01588234


--------------------------------------------------------------------------------------------------------




--------------------------------------- Iteration      1(  16)  ---------------------------------------


    POTLOK:  cpu time    0.1215: real time    0.1222
    SETDIJ:  cpu time    0.0027: real time    0.0027
    EDDIAG:  cpu time    0.0378: real time    0.0384
  RMM-DIIS:  cpu time    0.1536: real time    0.1547
    ORTHCH:  cpu time    0.0017: real time    0.0017
       DOS:  cpu time    0.0002: real time    0.0002
    CHARGE:  cpu time    0.0169: real time    0.0169
    MIXING:  cpu time    0.0068: real time    0.0068
    --------------------------------------------
      LOOP:  cpu time    0.3411: real time    0.3436

 eigenvalue-minimisations  :    64
 total energy-change (2. order) :-0.2085029E-03  (-0.1483043E-04)
 number of electron       8.0000002 magnetization 
 augmentation part        0.1880018 magnetization 

 Broyden mixing:
  rms(total) = 0.13290E-02    rms(broyden)= 0.13285E-02
  rms(prec ) = 0.17953E-02
  weight for this iteration     100.00

 eigenvalues of (default mixing * dielectric matrix)
  average eigenvalue GAMMA=   2.4800
  7.6137  4.6125  3.6213  2.3682  2.3682  1.2481  1.2481  0.8999  0.9796  1.1599
  1.1599

 Free energy of the ion-electron system (eV)
  ---------------------------------------------------
  alpha Z        PSCENC =         0.24924733
  Ewald energy   TEWEN  =       129.74977759
  -Hartree energ DENC   =      -285.25347966
  -exchange      EXHF   =         0.00000000
  -V(xc)+E(xc)   XCENC  =        24.84475711
  PAW double counting   =       480.71225291     -481.50727248
  entropy T*S    EENTRO =        -0.00000000
  eigenvalues    EBANDS =       -89.85312817
  atomic energy  EATOM  =       197.04175453
  Solvation  Ediel_sol  =         0.00000000
  ---------------------------------------------------
  free energy    TOTEN  =       -24.01609084 eV

  energy without entropy =      -24.01609084  energy(sigma->0) =      -24.01609084


--------------------------------------------------------------------------------------------------------




--------------------------------------- Iteration      1(  17)  ---------------------------------------


    POTLOK:  cpu time    0.1213: real time    0.1219
    SETDIJ:  cpu time    0.0024: real time    0.0024
    EDDIAG:  cpu time    0.0374: real time    0.0376
  RMM-DIIS:  cpu time    0.1494: real time    0.1502
    ORTHCH:  cpu time    0.0024: real time    0.0025
       DOS:  cpu time    0.0002: real time    0.0002
    CHARGE:  cpu time    0.0169: real time    0.0169
    MIXING:  cpu time    0.0070: real time    0.0071
    --------------------------------------------
      LOOP:  cpu time    0.3371: real time    0.3388

 eigenvalue-minimisations  :    64
 total energy-change (2. order) :-0.1797270E-04  (-0.3569045E-05)
 number of electron       8.0000002 magnetization 
 augmentation part        0.1879613 magnetization 

 Broyden mixing:
  rms(total) = 0.16850E-03    rms(broyden)= 0.16842E-03
  rms(prec ) = 0.24423E-03
  weight for this iteration     100.00

 eigenvalues of (default mixing * dielectric matrix)
  average eigenvalue GAMMA=   2.5509
  8.2674  5.1166  3.9463  2.5150  2.5150  1.7746  1.3330  1.3330  1.0236  0.9599
  0.9599  0.8669

 Free energy of the ion-electron system (eV)
  ---------------------------------------------------
  alpha Z        PSCENC =         0.24924733
  Ewald energy   TEWEN  =       129.74977759
  -Hartree energ DENC   =      -285.30310997
  -exchange      EXHF   =         0.00000000
  -V(xc)+E(xc)   XCENC  =        24.84716281
  PAW double counting   =       480.72983250     -481.52530282
  entropy T*S    EENTRO =        -0.00000000
  eigenvalues    EBANDS =       -89.80547079
  atomic energy  EATOM  =       197.04175453
  Solvation  Ediel_sol  =         0.00000000
  ---------------------------------------------------
  free energy    TOTEN  =       -24.01610881 eV

  energy without entropy =      -24.01610881  energy(sigma->0) =      -24.01610881


--------------------------------------------------------------------------------------------------------




--------------------------------------- Iteration      1(  18)  ---------------------------------------


    POTLOK:  cpu time    0.1243: real time    0.1249
    SETDIJ:  cpu time    0.0025: real time    0.0025
    EDDIAG:  cpu time    0.0373: real time    0.0374
  RMM-DIIS:  cpu time    0.1225: real time    0.1232
    ORTHCH:  cpu time    0.0018: real time    0.0018
       DOS:  cpu time    0.0002: real time    0.0002
    CHARGE:  cpu time    0.0195: real time    0.0196
    MIXING:  cpu time    0.0074: real time    0.0074
    --------------------------------------------
      LOOP:  cpu time    0.3154: real time    0.3170

 eigenvalue-minimisations  :    48
 total energy-change (2. order) :-0.1885038E-04  (-0.1367072E-06)
 number of electron       8.0000002 magnetization 
 augmentation part        0.1879578 magnetization 

 Broyden mixing:
  rms(total) = 0.75358E-04    rms(broyden)= 0.75299E-04
  rms(prec ) = 0.11435E-03
  weight for this iteration     100.00

 eigenvalues of (default mixing * dielectric matrix)
  average eigenvalue GAMMA=   2.5425
  8.3155  5.3099  3.7691  3.0452  2.4826  2.1217  1.3188  1.3188  1.4162  0.8843
  0.9924  0.9924  1.0863

 Free energy of the ion-electron system (eV)
  ---------------------------------------------------
  alpha Z        PSCENC =         0.24924733
  Ewald energy   TEWEN  =       129.74977759
  -Hartree energ DENC   =      -285.29703803
  -exchange      EXHF   =         0.00000000
  -V(xc)+E(xc)   XCENC  =        24.84670186
  PAW double counting   =       480.63102135     -481.42648198
  entropy T*S    EENTRO =        -0.00000000
  eigenvalues    EBANDS =       -89.81111032
  atomic energy  EATOM  =       197.04175453
  Solvation  Ediel_sol  =         0.00000000
  ---------------------------------------------------
  free energy    TOTEN  =       -24.01612766 eV

  energy without entropy =      -24.01612766  energy(sigma->0) =      -24.01612766


--------------------------------------------------------------------------------------------------------




--------------------------------------- Iteration      1(  19)  ---------------------------------------


    POTLOK:  cpu time    0.1249: real time    0.1256
    SETDIJ:  cpu time    0.0029: real time    0.0029
    EDDIAG:  cpu time    0.0352: real time    0.0357
  RMM-DIIS:  cpu time    0.1233: real time    0.1238
    ORTHCH:  cpu time    0.0017: real time    0.0017
       DOS:  cpu time    0.0002: real time    0.0002
    CHARGE:  cpu time    0.0170: real time    0.0170
    MIXING:  cpu time    0.0078: real time    0.0078
    --------------------------------------------
      LOOP:  cpu time    0.3129: real time    0.3147

 eigenvalue-minimisations  :    48
 total energy-change (2. order) :-0.2615263E-05  (-0.3649937E-07)
 number of electron       8.0000002 magnetization 
 augmentation part        0.1879568 magnetization 

 Broyden mixing:
  rms(total) = 0.73231E-04    rms(broyden)= 0.73208E-04
  rms(prec ) = 0.10036E-03
  weight for this iteration     100.00

 eigenvalues of (default mixing * dielectric matrix)
  average eigenvalue GAMMA=   2.5192
  8.3345  5.4940  3.7417  3.3394  2.5192  2.5192  1.9139  1.3200  1.3200  1.0253
  0.9652  0.9652  0.9054  0.9054

 Free energy of the ion-electron system (eV)
  ---------------------------------------------------
  alpha Z        PSCENC =         0.24924733
  Ewald energy   TEWEN  =       129.74977759
  -Hartree energ DENC   =      -285.29431258
  -exchange      EXHF   =         0.00000000
  -V(xc)+E(xc)   XCENC  =        24.84647858
  PAW double counting   =       480.61837123     -481.41382880
  entropy T*S    EENTRO =        -0.00000000
  eigenvalues    EBANDS =       -89.81361817
  atomic energy  EATOM  =       197.04175453
  Solvation  Ediel_sol  =         0.00000000
  ---------------------------------------------------
  free energy    TOTEN  =       -24.01613028 eV

  energy without entropy =      -24.01613028  energy(sigma->0) =      -24.01613028


--------------------------------------------------------------------------------------------------------




--------------------------------------- Iteration      1(  20)  ---------------------------------------


    POTLOK:  cpu time    0.1272: real time    0.1278
    SETDIJ:  cpu time    0.0024: real time    0.0024
    EDDIAG:  cpu time    0.0361: real time    0.0362
  RMM-DIIS:  cpu time    0.1222: real time    0.1230
    ORTHCH:  cpu time    0.0018: real time    0.0018
       DOS:  cpu time    0.0002: real time    0.0002
    CHARGE:  cpu time    0.0164: real time    0.0164
    MIXING:  cpu time    0.0077: real time    0.0078
    --------------------------------------------
      LOOP:  cpu time    0.3139: real time    0.3156

 eigenvalue-minimisations  :    48
 total energy-change (2. order) :-0.1685151E-05  (-0.1202465E-07)
 number of electron       8.0000002 magnetization 
 augmentation part        0.1879580 magnetization 

 Broyden mixing:
  rms(total) = 0.21820E-04    rms(broyden)= 0.21811E-04
  rms(prec ) = 0.25816E-04
  weight for this iteration     100.00

 eigenvalues of (default mixing * dielectric matrix)
  average eigenvalue GAMMA=   2.4606
  8.3736  5.5211  3.8997  3.7553  2.4467  2.4467  1.8875  1.3298  1.3298  1.0325
  1.0325  0.8779  1.0509  0.9624  0.9624

 Free energy of the ion-electron system (eV)
  ---------------------------------------------------
  alpha Z        PSCENC =         0.24924733
  Ewald energy   TEWEN  =       129.74977759
  -Hartree energ DENC   =      -285.29151460
  -exchange      EXHF   =         0.00000000
  -V(xc)+E(xc)   XCENC  =        24.84632531
  PAW double counting   =       480.62259843     -481.41802030
  entropy T*S    EENTRO =        -0.00000000
  eigenvalues    EBANDS =       -89.81630025
  atomic energy  EATOM  =       197.04175453
  Solvation  Ediel_sol  =         0.00000000
  ---------------------------------------------------
  free energy    TOTEN  =       -24.01613196 eV

  energy without entropy =      -24.01613196  energy(sigma->0) =      -24.01613196


--------------------------------------------------------------------------------------------------------




--------------------------------------- Iteration      1(  21)  ---------------------------------------


    POTLOK:  cpu time    0.1261: real time    0.1296
    SETDIJ:  cpu time    0.0025: real time    0.0025
    EDDIAG:  cpu time    0.0361: real time    0.0362
  RMM-DIIS:  cpu time    0.1049: real time    0.1055
    ORTHCH:  cpu time    0.0019: real time    0.0020
       DOS:  cpu time    0.0002: real time    0.0002
    --------------------------------------------
      LOOP:  cpu time    0.2717: real time    0.2759

 eigenvalue-minimisations  :    32
 total energy-change (2. order) :-0.3000503E-06  ( 0.0000000E+00)
 number of electron       8.0000002 magnetization 
 augmentation part        0.1879580 magnetization 

 Free energy of the ion-electron system (eV)
  ---------------------------------------------------
  alpha Z        PSCENC =         0.24924733
  Ewald energy   TEWEN  =       129.74977759
  -Hartree energ DENC   =      -285.29166473
  -exchange      EXHF   =         0.00000000
  -V(xc)+E(xc)   XCENC  =        24.84633548
  PAW double counting   =       480.62349202     -481.41891573
  entropy T*S    EENTRO =        -0.00000000
  eigenvalues    EBANDS =       -89.81615875
  atomic energy  EATOM  =       197.04175453
  Solvation  Ediel_sol  =         0.00000000
  ---------------------------------------------------
  free energy    TOTEN  =       -24.01613226 eV

  energy without entropy =      -24.01613226  energy(sigma->0) =      -24.01613226


--------------------------------------------------------------------------------------------------------




 average (electrostatic) potential at core
  the test charge radii are     0.5201  0.6991
  (the norm of the test charge is              1.0000)
       1 -41.6013       2 -41.4907       3 -41.5814       4 -41.5298       5 -57.8993
 
 
 
 E-fermi :  -8.2589     XC(G=0):  -0.7150     alpha+bet : -0.2168


 k-point     1 :       0.2500    0.2500    0.2500
  band No.  band energies     occupation 
      1     -16.9522      2.00000
      2      -9.4207      2.00000
      3      -9.3498      2.00000
      4      -9.1855      2.00000
      5      -0.3013      0.00000
      6       0.5898      0.00000
      7       0.6890      0.00000
      8       0.7201      0.00000

 k-point     2 :      -0.2500    0.2500    0.2500
  band No.  band energies     occupation 
      1     -16.9522      2.00000
      2      -9.4206      2.00000
      3      -9.3497      2.00000
      4      -9.1856      2.00000
      5      -0.3003      0.00000
      6       0.5826      0.00000
      7       0.6809      0.00000
      8       0.7225      0.00000

 k-point     3 :       0.2500   -0.2500    0.2500
  band No.  band energies     occupation 
      1     -16.9522      2.00000
      2      -9.4207      2.00000
      3      -9.3498      2.00000
      4      -9.1856      2.00000
      5      -0.3030      0.00000
      6       0.5886      0.00000
      7       0.6943      0.00000
      8       0.7232      0.00000

 k-point     4 :      -0.2500   -0.2500    0.2500
  band No.  band energies     occupation 
      1     -16.9522      2.00000
      2      -9.4206      2.00000
      3      -9.3496      2.00000
      4      -9.1854      2.00000
      5      -0.2935      0.00000
      6       0.5749      0.00000
      7       0.6704      0.00000
      8       0.6982      0.00000


--------------------------------------------------------------------------------------------------------


 soft charge-density along one line, spin component           1
         0         1         2         3         4         5         6         7         8         9
 total charge-density along one line
 
 pseudopotential strength for first ion, spin component:           1
 -2.342  -4.035  -0.001  -0.001   0.001
 -4.035  -6.868  -0.003  -0.004   0.002
 -0.001  -0.003  -0.336   0.002  -0.001
 -0.001  -0.004   0.002  -0.335  -0.001
  0.001   0.002  -0.001  -0.001  -0.338
 total augmentation occupancy for first ion, spin component:           1
  3.598  -0.645   0.248   0.346  -0.139
 -0.645   0.130  -0.046  -0.064   0.026
  0.248  -0.046   0.024   0.020  -0.008
  0.346  -0.064   0.020   0.037  -0.011
 -0.139   0.026  -0.008  -0.011   0.014


------------------------ aborting loop because EDIFF is reached ----------------------------------------


    CHARGE:  cpu time    0.0170: real time    0.0170
    FORLOC:  cpu time    0.0146: real time    0.0146
    FORNL :  cpu time    0.0216: real time    0.0217
    STRESS:  cpu time    0.1726: real time    0.1731
    FORCOR:  cpu time    0.1289: real time    0.1298
    FORHAR:  cpu time    0.0424: real time    0.0426
    MIXING:  cpu time    0.0075: real time    0.0076
    OFIELD:  cpu time    0.0000: real time    0.0000

  FORCE on cell =-STRESS in cart. coord.  units (eV):
  Direction    XX          YY          ZZ          XY          YZ          ZX
  --------------------------------------------------------------------------------------
  Alpha Z     0.24925     0.24925     0.24925
  Ewald      42.48340    43.82277    43.44355    -1.30108     1.86073     2.32527
  Hartree    94.72295    95.55721    95.01179    -0.62869     0.54280     0.97996
  E(xc)     -27.32212   -27.32610   -27.32264    -0.00622     0.00725     0.01173
  Local    -196.02691  -197.93215  -197.01178     1.79577    -2.03128    -3.00777
  n-local   -16.10622   -16.16500   -16.13145    -0.01986    -0.00518     0.01109
  augment     0.11320     0.10978     0.11021     0.00062    -0.00298    -0.00183
  Kinetic   101.72790   101.98602   101.74917     0.33458    -0.37270    -0.56437
  Fock        0.00000     0.00000     0.00000     0.00000     0.00000     0.00000
  -------------------------------------------------------------------------------------
  Total      -0.15855     0.30178     0.09810     0.17512    -0.00137    -0.24591
  in kB      -0.26136     0.49747     0.16171     0.28868    -0.00226    -0.40537
  external pressure =        0.13 kB  Pullay stress =        0.00 kB

  kinetic pressure (ideal gas correction) =      0.00 kB
  total pressure  =      0.13 kB
  Total+kin.    -0.261       0.497       0.162       0.289      -0.002      -0.405

 VOLUME and BASIS-vectors are now :
 -----------------------------------------------------------------------------
  energy-cutoff  :      400.00
  volume of cell :      971.93
      direct lattice vectors                 reciprocal lattice vectors
     9.946191502  0.000000000  0.000000000     0.100540996  0.002093945 -0.002651918
    -0.205294739  9.857249296  0.000000000     0.000000000  0.101448180 -0.001218569
     0.259000375  0.119077047  9.913388765     0.000000000  0.000000000  0.100873679

  length of vectors
     9.946191502  9.859386878  9.917486442     0.100597759  0.101455498  0.100873679


 FORCES acting on ions
    electron-ion (+dipol)            ewald-force                    non-local-force                 convergence-correction
 -----------------------------------------------------------------------------------------------
   -.166E+02 0.298E+02 0.414E+02   0.185E+02 -.332E+02 -.462E+02   -.176E+01 0.318E+01 0.441E+01   -.389E-05 0.731E-05 0.837E-05
   0.526E+02 -.640E+01 0.302E+01   -.581E+02 0.701E+01 -.325E+01   0.546E+01 -.696E+00 0.334E+00   0.972E-05 -.636E-05 0.182E-05
   -.232E+02 -.484E+02 0.113E+01   0.259E+02 0.540E+02 -.136E+01   -.246E+01 -.515E+01 0.824E-01   -.513E-05 -.173E-04 -.276E-05
   -.139E+02 0.235E+02 -.458E+02   0.153E+02 -.261E+02 0.508E+02   -.150E+01 0.243E+01 -.481E+01   -.705E-05 0.410E-05 -.122E-04
   0.146E+01 0.159E+01 0.373E-01   -.170E+01 -.173E+01 0.321E-01   -.531E-01 0.191E+00 0.164E+00   -.907E-05 -.172E-04 -.431E-05
 -----------------------------------------------------------------------------------------------
   0.317E+00 0.549E-01 -.187E+00   -.178E-14 0.000E+00 0.711E-14   -.318E+00 -.544E-01 0.187E+00   -.154E-04 -.295E-04 -.907E-05
 
 
 POSITION                                       TOTAL-FORCE (eV/Angst)
 -----------------------------------------------------------------------------------
      5.35956      4.05304      3.57397         0.190534     -0.237283     -0.374671
      3.93867      4.78738      4.34762        -0.065716     -0.085325      0.099129
      5.49123      5.62839      4.38811         0.261651      0.478132     -0.150768
      5.31025      4.17508      5.34662        -0.093537     -0.207328      0.193099
      5.02396      4.65300      4.40970        -0.293263      0.052337      0.233243
 -----------------------------------------------------------------------------------
    total drift:                               -0.000331      0.000534      0.000031


--------------------------------------------------------------------------------------------------------



  FREE ENERGIE OF THE ION-ELECTRON SYSTEM (eV)
  ---------------------------------------------------
  free  energy   TOTEN  =       -24.01613226 eV

  energy  without entropy=      -24.01613226  energy(sigma->0) =      -24.01613226
 


--------------------------------------------------------------------------------------------------------


    POTLOK:  cpu time    0.1349: real time    0.1355


--------------------------------------------------------------------------------------------------------


           RANDOM_SEED =         172298435                0                0
           RANDOM_SEED =         172298435               30                0
   IONSTEP:  cpu time    0.0030: real time    0.0030

  ENERGY OF THE ELECTRON-ION-THERMOSTAT SYSTEM (eV)
  ---------------------------------------------------
% ion-electron   TOTEN  =       -24.016132  see above
  kinetic energy EKIN   =         0.000202
  kin. lattice  EKIN_LAT=         0.000000  (temperature    0.39 K)
  nose potential ES     =         0.000000
  nose kinetic   EPS    =         0.000000
  ---------------------------------------------------
  total energy   ETOTAL =       -24.015930 eV

  maximum distance moved by ions :      0.14E-03

    WAVPRE:  cpu time    0.0425: real time    0.0429
    FEWALD:  cpu time    0.0011: real time    0.0011
    ORTHCH:  cpu time    0.0092: real time    0.0092
     LOOP+:  cpu time    7.1292: real time    7.1927


--------------------------------------- Iteration      2(   1)  ---------------------------------------


    POTLOK:  cpu time    0.1324: real time    0.1331
    SETDIJ:  cpu time    0.0024: real time    0.0024
     EDDAV:  cpu time    0.1675: real time    0.1685
       DOS:  cpu time    0.0003: real time    0.0003
    CHARGE:  cpu time    0.0164: real time    0.0165
    MIXING:  cpu time    0.0077: real time    0.0077
    --------------------------------------------
      LOOP:  cpu time    0.3268: real time    0.3285

 eigenvalue-minimisations  :    80
 total energy-change (2. order) :-0.1577235E-02  (-0.1845825E-03)
 number of electron       8.0000002 magnetization 
 augmentation part        0.1876640 magnetization 

 Broyden mixing:
  rms(total) = 0.23245E-02    rms(broyden)= 0.23234E-02
  rms(prec ) = 0.30517E-02
  weight for this iteration     100.00

 Free energy of the ion-electron system (eV)
  ---------------------------------------------------
  alpha Z        PSCENC =         0.24924733
  Ewald energy   TEWEN  =       129.56142192
  -Hartree energ DENC   =      -285.18479695
  -exchange      EXHF   =         0.00000000
  -V(xc)+E(xc)   XCENC  =        24.84095091
  PAW double counting   =       480.62862151     -481.42404331
  entropy T*S    EENTRO =        -0.00000000
  eigenvalues    EBANDS =       -89.73086514
  atomic energy  EATOM  =       197.04175453
  Solvation  Ediel_sol  =         0.00000000
  ---------------------------------------------------
  free energy    TOTEN  =       -24.01770920 eV

  energy without entropy =      -24.01770920  energy(sigma->0) =      -24.01770920


--------------------------------------------------------------------------------------------------------




--------------------------------------- Iteration      2(   2)  ---------------------------------------


    POTLOK:  cpu time    0.1323: real time    0.1329
    SETDIJ:  cpu time    0.0026: real time    0.0026
    EDDIAG:  cpu time    0.0371: real time    0.0374
  RMM-DIIS:  cpu time    0.1542: real time    0.1553
    ORTHCH:  cpu time    0.0018: real time    0.0018
       DOS:  cpu time    0.0002: real time    0.0002
    CHARGE:  cpu time    0.0169: real time    0.0170
    MIXING:  cpu time    0.0052: real time    0.0052
    --------------------------------------------
      LOOP:  cpu time    0.3504: real time    0.3524

 eigenvalue-minimisations  :    64
 total energy-change (2. order) : 0.1523746E-04  (-0.4515155E-05)
 number of electron       8.0000002 magnetization 
 augmentation part        0.1876985 magnetization 

 Broyden mixing:
  rms(total) = 0.10568E-02    rms(broyden)= 0.10567E-02
  rms(prec ) = 0.13022E-02
  weight for this iteration     100.00

 eigenvalues of (default mixing * dielectric matrix)
  average eigenvalue GAMMA=   1.6739
  1.6739

 Free energy of the ion-electron system (eV)
  ---------------------------------------------------
  alpha Z        PSCENC =         0.24924733
  Ewald energy   TEWEN  =       129.56142192
  -Hartree energ DENC   =      -285.14582750
  -exchange      EXHF   =         0.00000000
  -V(xc)+E(xc)   XCENC  =        24.83884698
  PAW double counting   =       480.10173419     -480.89669807
  entropy T*S    EENTRO =        -0.00000000
  eigenvalues    EBANDS =       -89.76817334
  atomic energy  EATOM  =       197.04175453
  Solvation  Ediel_sol  =         0.00000000
  ---------------------------------------------------
  free energy    TOTEN  =       -24.01769396 eV

  energy without entropy =      -24.01769396  energy(sigma->0) =      -24.01769396


--------------------------------------------------------------------------------------------------------




--------------------------------------- Iteration      2(   3)  ---------------------------------------


    POTLOK:  cpu time    0.1253: real time    0.1274
    SETDIJ:  cpu time    0.0025: real time    0.0026
    EDDIAG:  cpu time    0.0380: real time    0.0382
  RMM-DIIS:  cpu time    0.1570: real time    0.1579
    ORTHCH:  cpu time    0.0018: real time    0.0018
       DOS:  cpu time    0.0002: real time    0.0002
    CHARGE:  cpu time    0.0170: real time    0.0171
    MIXING:  cpu time    0.0050: real time    0.0051
    --------------------------------------------
      LOOP:  cpu time    0.3469: real time    0.3503

 eigenvalue-minimisations  :    64
 total energy-change (2. order) : 0.9887398E-06  (-0.2343087E-05)
 number of electron       8.0000002 magnetization 
 augmentation part        0.1877363 magnetization 

 Broyden mixing:
  rms(total) = 0.44269E-03    rms(broyden)= 0.44241E-03
  rms(prec ) = 0.51770E-03
  weight for this iteration     100.00

 eigenvalues of (default mixing * dielectric matrix)
  average eigenvalue GAMMA=   1.4328
  1.4328  1.4328

 Free energy of the ion-electron system (eV)
  ---------------------------------------------------
  alpha Z        PSCENC =         0.24924733
  Ewald energy   TEWEN  =       129.56142192
  -Hartree energ DENC   =      -285.12321339
  -exchange      EXHF   =         0.00000000
  -V(xc)+E(xc)   XCENC  =        24.83757764
  PAW double counting   =       479.67459749     -480.46926740
  entropy T*S    EENTRO =        -0.00000000
  eigenvalues    EBANDS =       -89.78981111
  atomic energy  EATOM  =       197.04175453
  Solvation  Ediel_sol  =         0.00000000
  ---------------------------------------------------
  free energy    TOTEN  =       -24.01769297 eV

  energy without entropy =      -24.01769297  energy(sigma->0) =      -24.01769297


--------------------------------------------------------------------------------------------------------




--------------------------------------- Iteration      2(   4)  ---------------------------------------


    POTLOK:  cpu time    0.1258: real time    0.1264
    SETDIJ:  cpu time    0.0027: real time    0.0027
    EDDIAG:  cpu time    0.0359: real time    0.0361
  RMM-DIIS:  cpu time    0.1241: real time    0.1247
    ORTHCH:  cpu time    0.0030: real time    0.0030
       DOS:  cpu time    0.0002: real time    0.0002
    --------------------------------------------
      LOOP:  cpu time    0.2917: real time    0.2930

 eigenvalue-minimisations  :    48
 total energy-change (2. order) :-0.2447632E-07  (-0.7306817E-07)
 number of electron       8.0000002 magnetization 
 augmentation part        0.1877363 magnetization 

 Free energy of the ion-electron system (eV)
  ---------------------------------------------------
  alpha Z        PSCENC =         0.24924733
  Ewald energy   TEWEN  =       129.56142192
  -Hartree energ DENC   =      -285.12982728
  -exchange      EXHF   =         0.00000000
  -V(xc)+E(xc)   XCENC  =        24.83784002
  PAW double counting   =       479.59450676     -480.38926259
  entropy T*S    EENTRO =        -0.00000000
  eigenvalues    EBANDS =       -89.78337369
  atomic energy  EATOM  =       197.04175453
  Solvation  Ediel_sol  =         0.00000000
  ---------------------------------------------------
  free energy    TOTEN  =       -24.01769300 eV

  energy without entropy =      -24.01769300  energy(sigma->0) =      -24.01769300


--------------------------------------------------------------------------------------------------------




 average (electrostatic) potential at core
  the test charge radii are     0.5201  0.6991
  (the norm of the test charge is              1.0000)
       1 -41.5918       2 -41.4909       3 -41.5712       4 -41.5261       5 -57.9038
 
 
 
 E-fermi :  -8.2477     XC(G=0):  -0.6914     alpha+bet : -0.2168


 k-point     1 :       0.2500    0.2500    0.2500
  band No.  band energies     occupation 
      1     -16.9458      2.00000
      2      -9.4142      2.00000
      3      -9.3471      2.00000
      4      -9.1847      2.00000
      5      -0.2940      0.00000
      6       0.6111      0.00000
      7       0.7034      0.00000
      8       0.7355      0.00000

 k-point     2 :      -0.2500    0.2500    0.2500
  band No.  band energies     occupation 
      1     -16.9458      2.00000
      2      -9.4142      2.00000
      3      -9.3471      2.00000
      4      -9.1847      2.00000
      5      -0.2930      0.00000
      6       0.6040      0.00000
      7       0.6953      0.00000
      8       0.7383      0.00000

 k-point     3 :       0.2500   -0.2500    0.2500
  band No.  band energies     occupation 
      1     -16.9458      2.00000
      2      -9.4142      2.00000
      3      -9.3471      2.00000
      4      -9.1848      2.00000
      5      -0.2956      0.00000
      6       0.6089      0.00000
      7       0.7090      0.00000
      8       0.7393      0.00000

 k-point     4 :      -0.2500   -0.2500    0.2500
  band No.  band energies     occupation 
      1     -16.9458      2.00000
      2      -9.4141      2.00000
      3      -9.3469      2.00000
      4      -9.1846      2.00000
      5      -0.2864      0.00000
      6       0.5955      0.00000
      7       0.6852      0.00000
      8       0.7152      0.00000


--------------------------------------------------------------------------------------------------------


 soft charge-density along one line, spin component           1
         0         1         2         3         4         5         6         7         8         9
 total charge-density along one line
 
 pseudopotential strength for first ion, spin component:           1
 -2.342  -4.035  -0.001  -0.001   0.001
 -4.035  -6.868  -0.003  -0.004   0.002
 -0.001  -0.003  -0.337   0.002  -0.001
 -0.001  -0.004   0.002  -0.335  -0.001
  0.001   0.002  -0.001  -0.001  -0.338
 total augmentation occupancy for first ion, spin component:           1
  3.594  -0.645   0.248   0.345  -0.138
 -0.645   0.130  -0.045  -0.063   0.026
  0.248  -0.045   0.024   0.020  -0.008
  0.345  -0.063   0.020   0.037  -0.011
 -0.138   0.026  -0.008  -0.011   0.014


------------------------ aborting loop because EDIFF is reached ----------------------------------------


    CHARGE:  cpu time    0.0178: real time    0.0178
    FORLOC:  cpu time    0.0149: real time    0.0149
    FORNL :  cpu time    0.0225: real time    0.0225
    STRESS:  cpu time    0.1724: real time    0.1730
    FORCOR:  cpu time    0.1312: real time    0.1321
    FORHAR:  cpu time    0.0460: real time    0.0463
    MIXING:  cpu time    0.0067: real time    0.0067
    OFIELD:  cpu time    0.0000: real time    0.0000

  FORCE on cell =-STRESS in cart. coord.  units (eV):
  Direction    XX          YY          ZZ          XY          YZ          ZX
  --------------------------------------------------------------------------------------
  Alpha Z     0.24925     0.24925     0.24925
  Ewald      42.45140    43.73636    43.37361    -1.29585     1.81585     2.29112
  Hartree    94.66137    95.51090    94.95831    -0.62107     0.53808     0.96560
  E(xc)     -27.31310   -27.31681   -27.31348    -0.00606     0.00716     0.01144
  Local    -195.92718  -197.82495  -196.90235     1.77924    -1.99589    -2.96183
  n-local   -16.08879   -16.14311   -16.11151    -0.01875    -0.00426     0.01032
  augment     0.11338     0.11035     0.11063     0.00068    -0.00283    -0.00183
  Kinetic   101.67883   101.92295   101.69319     0.32674    -0.36789    -0.55058
  Fock        0.00000     0.00000     0.00000     0.00000     0.00000     0.00000
  -------------------------------------------------------------------------------------
  Total      -0.17485     0.24494     0.05765     0.16494    -0.00979    -0.23575
  in kB      -0.28823     0.40376     0.09503     0.27189    -0.01614    -0.38863
  external pressure =        0.07 kB  Pullay stress =        0.00 kB

  kinetic pressure (ideal gas correction) =      0.00 kB
  total pressure  =      0.07 kB
  Total+kin.    -0.288       0.405       0.096       0.272      -0.016      -0.389

 VOLUME and BASIS-vectors are now :
 -----------------------------------------------------------------------------
  energy-cutoff  :      400.00
[...]
  PAW double counting   =       454.42108833     -455.20114658
  entropy T*S    EENTRO =        -0.00000000
  eigenvalues    EBANDS =       -89.10276763
  atomic energy  EATOM  =       197.04175453
  Solvation  Ediel_sol  =         0.00000000
  ---------------------------------------------------
  free energy    TOTEN  =       -24.02198000 eV

  energy without entropy =      -24.02198000  energy(sigma->0) =      -24.02198000


--------------------------------------------------------------------------------------------------------




--------------------------------------- Iteration     10(   2)  ---------------------------------------


    POTLOK:  cpu time    0.1303: real time    0.1310
    SETDIJ:  cpu time    0.0023: real time    0.0023
    EDDIAG:  cpu time    0.0364: real time    0.0367
  RMM-DIIS:  cpu time    0.1507: real time    0.1515
    ORTHCH:  cpu time    0.0017: real time    0.0017
       DOS:  cpu time    0.0002: real time    0.0002
    CHARGE:  cpu time    0.0162: real time    0.0163
    MIXING:  cpu time    0.0050: real time    0.0050
    --------------------------------------------
      LOOP:  cpu time    0.3428: real time    0.3447

 eigenvalue-minimisations  :    53
 total energy-change (2. order) :-0.1731000E-05  (-0.2254993E-06)
 number of electron       7.9999999 magnetization 
 augmentation part        0.1827746 magnetization 

 Broyden mixing:
  rms(total) = 0.80196E-04    rms(broyden)= 0.80161E-04
  rms(prec ) = 0.10622E-03
  weight for this iteration     100.00

 eigenvalues of (default mixing * dielectric matrix)
  average eigenvalue GAMMA=   1.1549
  1.1549

 Free energy of the ion-electron system (eV)
  ---------------------------------------------------
  alpha Z        PSCENC =         0.24924733
  Ewald energy   TEWEN  =       125.38537143
  -Hartree energ DENC   =      -281.46176255
  -exchange      EXHF   =         0.00000000
  -V(xc)+E(xc)   XCENC  =        24.64412892
  PAW double counting   =       454.41493670     -455.19502726
  entropy T*S    EENTRO =        -0.00000000
  eigenvalues    EBANDS =       -89.10063082
  atomic energy  EATOM  =       197.04175453
  Solvation  Ediel_sol  =         0.00000000
  ---------------------------------------------------
  free energy    TOTEN  =       -24.02198174 eV

  energy without entropy =      -24.02198174  energy(sigma->0) =      -24.02198174


--------------------------------------------------------------------------------------------------------




--------------------------------------- Iteration     10(   3)  ---------------------------------------


    POTLOK:  cpu time    0.1289: real time    0.1296
    SETDIJ:  cpu time    0.0024: real time    0.0024
    EDDIAG:  cpu time    0.0348: real time    0.0349
  RMM-DIIS:  cpu time    0.1217: real time    0.1223
    ORTHCH:  cpu time    0.0025: real time    0.0025
       DOS:  cpu time    0.0002: real time    0.0002
    CHARGE:  cpu time    0.0164: real time    0.0165
    MIXING:  cpu time    0.0053: real time    0.0053
    --------------------------------------------
      LOOP:  cpu time    0.3121: real time    0.3136

 eigenvalue-minimisations  :    48
 total energy-change (2. order) :-0.1491593E-05  (-0.2297510E-07)
 number of electron       7.9999999 magnetization 
 augmentation part        0.1827735 magnetization 

 Broyden mixing:
  rms(total) = 0.35983E-04    rms(broyden)= 0.35969E-04
  rms(prec ) = 0.48781E-04
  weight for this iteration     100.00

 eigenvalues of (default mixing * dielectric matrix)
  average eigenvalue GAMMA=   1.4521
  1.4521  1.4521

 Free energy of the ion-electron system (eV)
  ---------------------------------------------------
  alpha Z        PSCENC =         0.24924733
  Ewald energy   TEWEN  =       125.38537143
  -Hartree energ DENC   =      -281.46310583
  -exchange      EXHF   =         0.00000000
  -V(xc)+E(xc)   XCENC  =        24.64418769
  PAW double counting   =       454.40377287     -455.18387606
  entropy T*S    EENTRO =        -0.00000000
  eigenvalues    EBANDS =       -89.09933519
  atomic energy  EATOM  =       197.04175453
  Solvation  Ediel_sol  =         0.00000000
  ---------------------------------------------------
  free energy    TOTEN  =       -24.02198323 eV

  energy without entropy =      -24.02198323  energy(sigma->0) =      -24.02198323


--------------------------------------------------------------------------------------------------------




--------------------------------------- Iteration     10(   4)  ---------------------------------------


    POTLOK:  cpu time    0.1302: real time    0.1309
    SETDIJ:  cpu time    0.0024: real time    0.0025
    EDDIAG:  cpu time    0.0351: real time    0.0353
  RMM-DIIS:  cpu time    0.1248: real time    0.1254
    ORTHCH:  cpu time    0.0017: real time    0.0017
       DOS:  cpu time    0.0002: real time    0.0002
    CHARGE:  cpu time    0.0170: real time    0.0171
    MIXING:  cpu time    0.0053: real time    0.0053
    --------------------------------------------
      LOOP:  cpu time    0.3166: real time    0.3183

 eigenvalue-minimisations  :    47
 total energy-change (2. order) :-0.1188074E-05  (-0.6656211E-08)
 number of electron       7.9999999 magnetization 
 augmentation part        0.1827730 magnetization 

 Broyden mixing:
  rms(total) = 0.19833E-04    rms(broyden)= 0.19825E-04
  rms(prec ) = 0.30795E-04
  weight for this iteration     100.00

 eigenvalues of (default mixing * dielectric matrix)
  average eigenvalue GAMMA=   1.7743
  0.9591  2.1819  2.1819

 Free energy of the ion-electron system (eV)
  ---------------------------------------------------
  alpha Z        PSCENC =         0.24924733
  Ewald energy   TEWEN  =       125.38537143
  -Hartree energ DENC   =      -281.46323442
  -exchange      EXHF   =         0.00000000
  -V(xc)+E(xc)   XCENC  =        24.64418899
  PAW double counting   =       454.39461387     -455.17471619
  entropy T*S    EENTRO =        -0.00000000
  eigenvalues    EBANDS =       -89.09920995
  atomic energy  EATOM  =       197.04175453
  Solvation  Ediel_sol  =         0.00000000
  ---------------------------------------------------
  free energy    TOTEN  =       -24.02198442 eV

  energy without entropy =      -24.02198442  energy(sigma->0) =      -24.02198442


--------------------------------------------------------------------------------------------------------




--------------------------------------- Iteration     10(   5)  ---------------------------------------


    POTLOK:  cpu time    0.1327: real time    0.1336
    SETDIJ:  cpu time    0.0024: real time    0.0024
    EDDIAG:  cpu time    0.0352: real time    0.0354
  RMM-DIIS:  cpu time    0.1056: real time    0.1075
    ORTHCH:  cpu time    0.0017: real time    0.0017
       DOS:  cpu time    0.0002: real time    0.0002
    CHARGE:  cpu time    0.0165: real time    0.0166
    MIXING:  cpu time    0.0054: real time    0.0054
    --------------------------------------------
      LOOP:  cpu time    0.2996: real time    0.3028

 eigenvalue-minimisations  :    35
 total energy-change (2. order) :-0.1682032E-05  (-0.9044969E-09)
 number of electron       7.9999999 magnetization 
 augmentation part        0.1827728 magnetization 

 Broyden mixing:
  rms(total) = 0.79251E-05    rms(broyden)= 0.79236E-05
  rms(prec ) = 0.14989E-04
  weight for this iteration     100.00

 eigenvalues of (default mixing * dielectric matrix)
  average eigenvalue GAMMA=   1.6521
  2.8111  1.7158  0.9327  1.1486

 Free energy of the ion-electron system (eV)
  ---------------------------------------------------
  alpha Z        PSCENC =         0.24924733
  Ewald energy   TEWEN  =       125.38537143
  -Hartree energ DENC   =      -281.46276167
  -exchange      EXHF   =         0.00000000
  -V(xc)+E(xc)   XCENC  =        24.64416241
  PAW double counting   =       454.38443474     -455.16452782
  entropy T*S    EENTRO =        -0.00000000
  eigenvalues    EBANDS =       -89.09966704
  atomic energy  EATOM  =       197.04175453
  Solvation  Ediel_sol  =         0.00000000
  ---------------------------------------------------
  free energy    TOTEN  =       -24.02198610 eV

  energy without entropy =      -24.02198610  energy(sigma->0) =      -24.02198610


--------------------------------------------------------------------------------------------------------




--------------------------------------- Iteration     10(   6)  ---------------------------------------


    POTLOK:  cpu time    0.1328: real time    0.1334
    SETDIJ:  cpu time    0.0025: real time    0.0025
    EDDIAG:  cpu time    0.0356: real time    0.0358
  RMM-DIIS:  cpu time    0.1038: real time    0.1043
    ORTHCH:  cpu time    0.0018: real time    0.0018
       DOS:  cpu time    0.0002: real time    0.0002
    --------------------------------------------
      LOOP:  cpu time    0.2767: real time    0.2780

 eigenvalue-minimisations  :    32
 total energy-change (2. order) :-0.5445098E-06  ( 0.0000000E+00)
 number of electron       7.9999999 magnetization 
 augmentation part        0.1827728 magnetization 

 Free energy of the ion-electron system (eV)
  ---------------------------------------------------
  alpha Z        PSCENC =         0.24924733
  Ewald energy   TEWEN  =       125.38537143
  -Hartree energ DENC   =      -281.46290457
  -exchange      EXHF   =         0.00000000
  -V(xc)+E(xc)   XCENC  =        24.64416632
  PAW double counting   =       454.38234635     -455.16244082
  entropy T*S    EENTRO =        -0.00000000
  eigenvalues    EBANDS =       -89.09952721
  atomic energy  EATOM  =       197.04175453
  Solvation  Ediel_sol  =         0.00000000
  ---------------------------------------------------
  free energy    TOTEN  =       -24.02198664 eV

  energy without entropy =      -24.02198664  energy(sigma->0) =      -24.02198664


--------------------------------------------------------------------------------------------------------




 average (electrostatic) potential at core
  the test charge radii are     0.5201  0.6991
  (the norm of the test charge is              1.0000)
       1 -41.4028       2 -41.4967       3 -41.3770       4 -41.4528       5 -58.0124
 
 
 
 E-fermi :  -8.2606     XC(G=0):  -0.7291     alpha+bet : -0.2168


 k-point     1 :       0.2500    0.2500    0.2500
  band No.  band energies     occupation 
      1     -16.8093      2.00000
      2      -9.2978      2.00000
      3      -9.2460      2.00000
      4      -9.1967      2.00000
      5      -0.3267      0.00000
      6       0.5704      0.00000
      7       0.6799      0.00000
      8       0.7103      0.00000

 k-point     2 :      -0.2500    0.2500    0.2500
  band No.  band energies     occupation 
      1     -16.8093      2.00000
      2      -9.2977      2.00000
      3      -9.2460      2.00000
      4      -9.1967      2.00000
      5      -0.3257      0.00000
      6       0.5607      0.00000
      7       0.6720      0.00000
      8       0.7160      0.00000

 k-point     3 :       0.2500   -0.2500    0.2500
  band No.  band energies     occupation 
      1     -16.8093      2.00000
      2      -9.2978      2.00000
      3      -9.2461      2.00000
      4      -9.1967      2.00000
      5      -0.3287      0.00000
      6       0.5700      0.00000
      7       0.6825      0.00000
      8       0.7183      0.00000

 k-point     4 :      -0.2500   -0.2500    0.2500
  band No.  band energies     occupation 
      1     -16.8093      2.00000
      2      -9.2976      2.00000
      3      -9.2459      2.00000
      4      -9.1966      2.00000
      5      -0.3190      0.00000
      6       0.5516      0.00000
      7       0.6634      0.00000
      8       0.6927      0.00000


--------------------------------------------------------------------------------------------------------


 soft charge-density along one line, spin component           1
         0         1         2         3         4         5         6         7         8         9
 total charge-density along one line
 
 pseudopotential strength for first ion, spin component:           1
 -2.340  -4.032  -0.001  -0.001   0.001
 -4.032  -6.862  -0.003  -0.004   0.002
 -0.001  -0.003  -0.338   0.002  -0.001
 -0.001  -0.004   0.002  -0.337  -0.001
  0.001   0.002  -0.001  -0.001  -0.339
 total augmentation occupancy for first ion, spin component:           1
  3.495  -0.631   0.229   0.321  -0.130
 -0.631   0.127  -0.043  -0.060   0.024
  0.229  -0.043   0.021   0.018  -0.007
  0.321  -0.060   0.018   0.033  -0.010
 -0.130   0.024  -0.007  -0.010   0.012


------------------------ aborting loop because EDIFF is reached ----------------------------------------


    CHARGE:  cpu time    0.0169: real time    0.0170
    FORLOC:  cpu time    0.0151: real time    0.0152
    FORNL :  cpu time    0.0218: real time    0.0218
    STRESS:  cpu time    0.1751: real time    0.1756
    FORCOR:  cpu time    0.1352: real time    0.1357
    FORHAR:  cpu time    0.0439: real time    0.0441
    MIXING:  cpu time    0.0056: real time    0.0056
    OFIELD:  cpu time    0.0000: real time    0.0000

  FORCE on cell =-STRESS in cart. coord.  units (eV):
  Direction    XX          YY          ZZ          XY          YZ          ZX
  --------------------------------------------------------------------------------------
  Alpha Z     0.24925     0.24925     0.24925
  Ewald      41.69808    41.89960    41.78764    -0.86726     0.43048     0.91731
  Hartree    93.28229    94.44610    93.73476    -0.38283     0.31049     0.47802
  E(xc)     -27.10623   -27.10500   -27.10422    -0.00141     0.00270     0.00188
  Local    -193.67902  -195.43926  -194.40056     1.09858    -0.74691    -1.26723
  n-local   -15.69694   -15.65680   -15.66914     0.00673     0.01254    -0.00750
  augment     0.11855     0.12212     0.12027     0.00127     0.00030    -0.00105
  Kinetic   100.56002   100.50690   100.44939     0.07777    -0.13970    -0.08520
  Fock        0.00000     0.00000     0.00000     0.00000     0.00000     0.00000
  -------------------------------------------------------------------------------------
  Total      -0.57401    -0.97709    -0.83262    -0.06716    -0.13009     0.03623
  in kB      -0.94623    -1.61068    -1.37253    -0.11070    -0.21445     0.05972
  external pressure =       -1.31 kB  Pullay stress =        0.00 kB

  kinetic pressure (ideal gas correction) =      0.01 kB
  total pressure  =     -1.30 kB
  Total+kin.    -0.940      -1.602      -1.365      -0.105      -0.220       0.054

 VOLUME and BASIS-vectors are now :
 -----------------------------------------------------------------------------
  energy-cutoff  :      400.00
  volume of cell :      971.93
      direct lattice vectors                 reciprocal lattice vectors
     9.946191502  0.000000000  0.000000000     0.100540996  0.002093945 -0.002651918
    -0.205294739  9.857249296  0.000000000     0.000000000  0.101448180 -0.001218569
     0.259000375  0.119077047  9.913388765     0.000000000  0.000000000  0.100873679

  length of vectors
     9.946191502  9.859386878  9.917486442     0.100597759  0.101455498  0.100873679


 FORCES acting on ions
    electron-ion (+dipol)            ewald-force                    non-local-force                 convergence-correction
 -----------------------------------------------------------------------------------------------
   -.163E+02 0.288E+02 0.402E+02   0.179E+02 -.314E+02 -.440E+02   -.167E+01 0.293E+01 0.410E+01   0.838E-05 -.730E-05 -.203E-04
   0.522E+02 -.596E+01 0.260E+01   -.576E+02 0.656E+01 -.286E+01   0.545E+01 -.634E+00 0.275E+00   -.763E-05 0.518E-05 0.315E-05
   -.226E+02 -.468E+02 0.173E+01   0.247E+02 0.511E+02 -.192E+01   -.229E+01 -.475E+01 0.166E+00   0.111E-04 0.274E-04 -.409E-05
   -.131E+02 0.235E+02 -.449E+02   0.144E+02 -.259E+02 0.494E+02   -.136E+01 0.242E+01 -.464E+01   -.201E-05 0.136E-06 0.122E-04
   -.450E+00 0.337E+00 0.532E+00   0.608E+00 -.317E+00 -.624E+00   0.208E+00 0.141E+00 -.486E-01   -.237E-04 0.151E-04 0.196E-04
 -----------------------------------------------------------------------------------------------
   -.329E+00 -.107E+00 0.151E+00   -.178E-14 0.355E-14 0.000E+00   0.329E+00 0.106E+00 -.150E+00   -.139E-04 0.405E-04 0.105E-04
 
 
 POSITION                                       TOTAL-FORCE (eV/Angst)
 -----------------------------------------------------------------------------------
      5.37171      4.04091      3.55316        -0.127444      0.238781      0.330526
      3.93364      4.77914      4.35669         0.034205     -0.034375      0.015824
      5.50710      5.65470      4.37440        -0.191123     -0.424775     -0.021730
      5.29959      4.15918      5.35749        -0.081996      0.059585     -0.184040
      5.02293      4.65383      4.41091         0.366319      0.160726     -0.140242
 -----------------------------------------------------------------------------------
    total drift:                               -0.000038     -0.000058      0.000339


--------------------------------------------------------------------------------------------------------



  FREE ENERGIE OF THE ION-ELECTRON SYSTEM (eV)
  ---------------------------------------------------
  free  energy   TOTEN  =       -24.02198664 eV

  energy  without entropy=      -24.02198664  energy(sigma->0) =      -24.02198664
 
 d Force =-0.1757696E-02[-0.203E-02,-0.148E-02]  d Energy =-0.1758455E-02 0.758E-06
 d Force = 0.3594157E+00[ 0.359E+00, 0.360E+00]  d Ewald  = 0.3594160E+00-0.332E-06


--------------------------------------------------------------------------------------------------------


    POTLOK:  cpu time    0.1384: real time    0.1394


--------------------------------------------------------------------------------------------------------


           RANDOM_SEED =         172298435               30                0
   IONSTEP:  cpu time    0.0003: real time    0.0011

  ENERGY OF THE ELECTRON-ION-THERMOSTAT SYSTEM (eV)
  ---------------------------------------------------
% ion-electron   TOTEN  =       -24.021987  see above
  kinetic energy EKIN   =         0.006014
  kin. lattice  EKIN_LAT=         0.000000  (temperature   11.63 K)
  nose potential ES     =         0.000000
  nose kinetic   EPS    =         0.000000
  ---------------------------------------------------
  total energy   ETOTAL =       -24.015973 eV

  maximum distance moved by ions :      0.33E-03


 mean value of Nose-termostat <S>:     1.000 mean value of <T> :    13.132
 mean temperature <T/S>/<1/S>  :    13.132

    WAVPRE:  cpu time    0.0529: real time    0.0534
    FEWALD:  cpu time    0.0012: real time    0.0012
    ORTHCH:  cpu time    0.0094: real time    0.0095
 Prediction of Wavefunctions ALPHA= 2.099 BETA=-1.125
    POTLOK:  cpu time    0.1286: real time    0.1298
    EDDIAG:  cpu time    0.0374: real time    0.0376
     LOOP+:  cpu time    2.6345: real time    2.6513
    4ORBIT:  cpu time    0.0000: real time    0.0000

 total amount of memory used by VASP MPI-rank0    54564. kBytes
=======================================================================

   base      :      30000. kBytes
   nonl-proj :       2633. kBytes
   fftplans  :       7845. kBytes
   grid      :      12367. kBytes
   one-center:          6. kBytes
   wavefun   :       1713. kBytes
 
  
  
 General timing and accounting informations for this job:
 ========================================================
  
                  Total CPU time used (sec):       26.955
                            User time (sec):       24.420
                          System time (sec):        2.534
                         Elapsed time (sec):       27.399
  
                   Maximum memory used (kb):      178488.
                   Average memory used (kb):           0.
  
                          Minor page faults:       243552
                          Major page faults:            0
                 Voluntary context switches:           74
