 vasp.5.4.4.18Apr17-6-g9f103f2a35 (build Jul 09 2021 13:05:15) complex          
  
 executed on             LinuxIFC date 2021.11.04  19:02:40
 running on   16 total cores
 distrk:  each k-point on   16 cores,    1 groups
 distr:  one band on NCORES_PER_BAND=   4 cores,    4 groups


--------------------------------------------------------------------------------------------------------


 INCAR:
 POTCAR:    PAW_PBE H 15Jun2001                   
 POTCAR:    PAW_PBE C 08Apr2002                   
 POTCAR:    PAW_PBE H 15Jun2001                   
   VRHFIN =H: ultrasoft test                                                    
   LEXCH  = PE                                                                  
   EATOM  =    12.4884 eV,    0.9179 Ry                                         
                                                                                
   TITEL  = PAW_PBE H 15Jun2001                                                 
   LULTRA =        F    use ultrasoft PP ?                                      
   IUNSCR =        0    unscreen: 0-lin 1-nonlin 2-no                           
   RPACOR =    0.000    partial core radius                                     
   POMASS =    1.000; ZVAL   =    1.000    mass and valenz                      
   RCORE  =    1.100    outmost cutoff radius                                   
   RWIGS  =    0.700; RWIGS  =    0.370    wigner-seitz radius (au A)           
   ENMAX  =  250.000; ENMIN  =  200.000 eV                                      
   RCLOC  =    0.701    cutoff for local pot                                    
   LCOR   =        T    correct aug charges                                     
   LPAW   =        T    paw PP                                                  
   EAUG   =  400.000                                                            
   RMAX   =    1.123    core radius for proj-oper                               
   RAUG   =    1.200    factor for augmentation sphere                          
   RDEP   =    1.112    radius for radial grids                                 
   RDEPT  =    0.926    core radius for aug-charge                              
                                                                                
   Atomic configuration                                                         
    2 entries                                                                   
     n  l   j            E        occ.                                          
     1  0  0.50        -6.4927   1.0000                                         
     2  1  0.50        -3.4015   0.0000                                         
   Description                                                                  
     l       E           TYP  RCUT    TYP  RCUT                                 
     0     -6.4927494     23  1.100                                             
     0      6.8029130     23  1.100                                             
     1     -4.0817478     23  1.100                                             
  local pseudopotential read in
  atomic valenz-charges read in
  non local Contribution for L=           0  read in
    real space projection operators read in
  non local Contribution for L=           0  read in
    real space projection operators read in
  non local Contribution for L=           1  read in
    real space projection operators read in
    PAW grid and wavefunctions read in
 
   number of l-projection  operators is LMAX  =           3
   number of lm-projection operators is LMMAX =           5
 
 POTCAR:    PAW_PBE C 08Apr2002                   
   VRHFIN =C: s2p2                                                              
   LEXCH  = PE                                                                  
   EATOM  =   147.1560 eV,   10.8157 Ry                                         
                                                                                
   TITEL  = PAW_PBE C 08Apr2002                                                 
   LULTRA =        F    use ultrasoft PP ?                                      
   IUNSCR =        1    unscreen: 0-lin 1-nonlin 2-no                           
   RPACOR =    1.200    partial core radius                                     
   POMASS =   12.011; ZVAL   =    4.000    mass and valenz                      
   RCORE  =    1.500    outmost cutoff radius                                   
   RWIGS  =    1.630; RWIGS  =    0.863    wigner-seitz radius (au A)           
   ENMAX  =  400.000; ENMIN  =  300.000 eV                                      
   ICORE  =        2    local potential                                         
   LCOR   =        T    correct aug charges                                     
   LPAW   =        T    paw PP                                                  
   EAUG   =  644.873                                                            
   DEXC   =    0.000                                                            
   RMAX   =    1.529    core radius for proj-oper                               
   RAUG   =    1.300    factor for augmentation sphere                          
   RDEP   =    1.501    radius for radial grids                                 
   RDEPT  =    1.300    core radius for aug-charge                              
                                                                                
   Atomic configuration                                                         
    4 entries                                                                   
     n  l   j            E        occ.                                          
     1  0  0.50      -273.3789   2.0000                                         
     2  0  0.50       -13.7508   2.0000                                         
     2  1  0.50        -5.2854   2.0000                                         
     3  2  1.50        -5.4423   0.0000                                         
   Description                                                                  
     l       E           TYP  RCUT    TYP  RCUT                                 
     0    -13.7508458     23  1.200                                             
     0     -8.2022199     23  1.200                                             
     1     -5.2854383     23  1.500                                             
     1     34.0145650     23  1.500                                             
     2     -5.4423304      7  1.500                                             
  local pseudopotential read in
  partial core-charges read in
  partial kinetic energy density read in
  atomic valenz-charges read in
  non local Contribution for L=           0  read in
    real space projection operators read in
  non local Contribution for L=           0  read in
    real space projection operators read in
  non local Contribution for L=           1  read in
    real space projection operators read in
  non local Contribution for L=           1  read in
    real space projection operators read in
    PAW grid and wavefunctions read in
 
   number of l-projection  operators is LMAX  =           4
   number of lm-projection operators is LMMAX =           8
 
  PAW_PBE H 15Jun2001                   :
 energy of atom  1       EATOM=  -12.4884
 kinetic energy error for atom=    0.0098 (will be added to EATOM!!)
  PAW_PBE C 08Apr2002                   :
 energy of atom  2       EATOM= -147.1560
 kinetic energy error for atom=    0.0288 (will be added to EATOM!!)
 
 
 POSCAR:  H  C                                   
  positions in cartesian coordinates
  No initial velocities read in
 exchange correlation table for  LEXCH =        8
   RHO(1)=    0.500       N(1)  =     2000
   RHO(2)=  100.500       N(2)  =     4000
 


--------------------------------------------------------------------------------------------------------


 ion  position               nearest neighbor table
   1  0.538  0.406  0.360-   5 1.09
   2  0.394  0.480  0.438-   5 1.12
   3  0.552  0.565  0.443-   5 1.08
   4  0.528  0.416  0.539-   5 1.11
   5  0.503  0.467  0.445-   3 1.08   1 1.09   4 1.11   2 1.12
 

IMPORTANT INFORMATION: All symmetrisations will be switched off!
NOSYMM: (Re-)initialisation of all symmetry stuff for point group C_1.

 
 

Automatic generation of k-mesh.
 generate k-points for:    2    2    2
Space group operators:
 irot       det(A)        alpha          n_x          n_y          n_z        tau_x        tau_y        tau_z
    1     1.000000     0.000000     1.000000     0.000000     0.000000     0.000000     0.000000     0.000000
 
 Subroutine IBZKPT returns following result:
 ===========================================
 
 Found      4 irreducible k-points:
 
 Following reciprocal coordinates:
            Coordinates               Weight
  0.250000  0.250000  0.250000      2.000000
 -0.250000  0.250000  0.250000      2.000000
  0.250000 -0.250000  0.250000      2.000000
 -0.250000 -0.250000  0.250000      2.000000
 
 Following cartesian coordinates:
            Coordinates               Weight
  0.024464  0.025490  0.024427      2.000000
 -0.024464  0.025626  0.025845      2.000000
  0.024464 -0.025626  0.023915      2.000000
 -0.024464 -0.025490  0.025334      2.000000
 


--------------------------------------------------------------------------------------------------------




 Dimension of arrays:
   k-points           NKPTS =      4   k-points in BZ     NKDIM =      4   number of bands    NBANDS=      8
   number of dos      NEDOS =    301   number of ions     NIONS =      5
   non local maximal  LDIM  =      4   non local SUM 2l+1 LMDIM =      8
   total plane-waves  NPLWV = 313600
   max r-space proj   IRMAX =      1   max aug-charges    IRDMAX=   3884
   dimension x,y,z NGX =    70 NGY =   64 NGZ =   70
   dimension x,y,z NGXF=   140 NGYF=  128 NGZF=  140
   support grid    NGXF=   140 NGYF=  128 NGZF=  140
   ions per type =               4   1
   NGX,Y,Z   is equivalent  to a cutoff of  11.39, 10.88, 11.58 a.u.
   NGXF,Y,Z  is equivalent  to a cutoff of  22.78, 21.75, 23.15 a.u.

 SYSTEM =  unknown system                          
 POSCAR =   H  C                                   

 Startparameter for this run:
   NWRITE =      2    write-flag & timer
   PREC   = a         normal or accurate (medium, high low for compatibility)
   ISTART =      0    job   : 0-new  1-cont  2-samecut
   ICHARG =      2    charge: 1-file 2-atom 10-const
   ISPIN  =      1    spin polarized calculation?
   LNONCOLLINEAR =      F non collinear calculations
   LSORBIT =      F    spin-orbit coupling
   INIWAV =      1    electr: 0-lowe 1-rand  2-diag
   LASPH  =      F    aspherical Exc in radial PAW
   METAGGA=      F    non-selfconsistent MetaGGA calc.

 Electronic Relaxation 1
   ENCUT  =  400.0 eV  29.40 Ry    5.42 a.u.  16.66 15.95 16.39*2*pi/ulx,y,z
   ENINI  =  400.0     initial cutoff
   ENAUG  =  644.9 eV  augmentation charge cutoff
   NELM   =    120;   NELMIN=  4; NELMDL= -5     # of ELM steps 
   EDIFF  = 0.1E-05   stopping-criterion for ELM
   LREAL  =      F    real-space projection
   NLSPLINE    = F    spline interpolate recip. space projectors
   LCOMPAT=      F    compatible to vasp.4.4
   GGA_COMPAT  = T    GGA compatible to vasp.4.4-vasp.4.6
   LMAXPAW     = -100 max onsite density
   LMAXMIX     =    2 max onsite mixed and CHGCAR
   VOSKOWN=      0    Vosko Wilk Nusair interpolation
   ROPT   =    0.00000   0.00000
 Ionic relaxation
   EDIFFG = 0.1E-04   stopping-criterion for IOM
   NSW    =     10    number of steps for IOM
   NBLOCK =      1;   KBLOCK =     10    inner block; outer block 
   IBRION =      0    ionic relax: 0-MD 1-quasi-New 2-CG
   NFREE  =      0    steps in history (QN), initial steepest desc. (CG)
   ISIF   =      2    stress and relaxation
   IWAVPR =     12    prediction:  0-non 1-charg 2-wave 3-comb
   ISYM   =      0    0-nonsym 1-usesym 2-fastsym
   LCORR  =      T    Harris-Foulkes like correction to forces

   POTIM  = 0.5000    time-step for ionic-motion
   TEIN   =    0.0    initial temperature
   TEBEG  =    0.0;   TEEND  =   0.0 temperature during run
   SMASS  =  -3.00    Nose mass-parameter (am)
   estimated Nose-frequenzy (Omega)   =  0.10E-29 period in steps =****** mass=  -0.239E-26a.u.
   SCALEE = 1.0000    scale energy and forces
   NPACO  =    256;   APACO  = 16.0  distance and # of slots for P.C.
   PSTRESS=    0.0 pullay stress

  Mass of Ions in am
   POMASS =   1.00 12.01
  Ionic Valenz
   ZVAL   =   1.00  4.00
  Atomic Wigner-Seitz radii
   RWIGS  =  -1.00 -1.00
  virtual crystal weights 
   VCA    =   1.00  1.00
   NELECT =       8.0000    total number of electrons
   NUPDOWN=      -1.0000    fix difference up-down

 DOS related values:
   EMIN   =  10.00;   EMAX   =-10.00  energy-range for DOS
   EFERMI =   0.00
   ISMEAR =     0;   SIGMA  =   0.20  broadening in eV -4-tet -1-fermi 0-gaus

 Electronic relaxation 2 (details)
   IALGO  =     68    algorithm
   LDIAG  =      T    sub-space diagonalisation (order eigenvalues)
   LSUBROT=      F    optimize rotation matrix (better conditioning)
   TURBO    =      0    0=normal 1=particle mesh
   IRESTART =      0    0=no restart 2=restart with 2 vectors
   NREBOOT  =      0    no. of reboots
   NMIN     =      0    reboot dimension
   EREF     =   0.00    reference energy to select bands
   IMIX   =      4    mixing-type and parameters
     AMIX     =   0.40;   BMIX     =  1.00
     AMIX_MAG =   1.60;   BMIX_MAG =  1.00
     AMIN     =   0.10
     WC   =   100.;   INIMIX=   1;  MIXPRE=   1;  MAXMIX= -45

 Intra band minimization:
   WEIMIN = 0.0010     energy-eigenvalue tresh-hold
   EBREAK =  0.31E-07  absolut break condition
   DEPER  =   0.30     relativ break condition  

   TIME   =   0.40     timestep for ELM

  volume/ion in A,a.u.               =     200.88      1355.63
  Fermi-wavevector in a.u.,A,eV,Ry     =   0.326939  0.617825  1.454314  0.106889
  Thomas-Fermi vector in A             =   1.219234
 
 Write flags
   LWAVE        =      F    write WAVECAR
   LDOWNSAMPLE  =      F    k-point downsampling of WAVECAR
   LCHARG       =      F    write CHGCAR
   LVTOT        =      F    write LOCPOT, total local potential
   LVHAR        =      F    write LOCPOT, Hartree potential only
   LELF         =      F    write electronic localiz. function (ELF)
   LORBIT       =      0    0 simple, 1 ext, 2 COOP (PROOUT), +10 PAW based schemes


 Dipole corrections
   LMONO  =      F    monopole corrections only (constant potential shift)
   LDIPOL =      F    correct potential (dipole corrections)
   IDIPOL =      0    1-x, 2-y, 3-z, 4-all directions 
   EPSILON=  1.0000000 bulk dielectric constant

 Exchange correlation treatment:
   GGA     =    --    GGA type
   LEXCH   =     8    internal setting for exchange type
   VOSKOWN=      0    Vosko Wilk Nusair interpolation
   LHFCALC =     F    Hartree Fock is set to
   LHFONE  =     F    Hartree Fock one center treatment
   AEXX    =    0.0000 exact exchange contribution

 Linear response parameters
   LEPSILON=     F    determine dielectric tensor
   LRPA    =     F    only Hartree local field effects (RPA)
   LNABLA  =     F    use nabla operator in PAW spheres
   LVEL    =     F    velocity operator in full k-point grid
   LINTERFAST=   F  fast interpolation
   KINTER  =     0    interpolate to denser k-point grid
   CSHIFT  =0.1000    complex shift for real part using Kramers Kronig
   OMEGAMAX=  -1.0    maximum frequency
   DEG_THRESHOLD= 0.2000000E-02 threshold for treating states as degnerate
   RTIME   =   -0.100 relaxation time in fs
  (WPLASMAI=    0.000 imaginary part of plasma frequency in eV, 0.658/RTIME)
   DFIELD  = 0.0000000 0.0000000 0.0000000 field for delta impulse in time
 
 Orbital magnetization related:
   ORBITALMAG=     F  switch on orbital magnetization
   LCHIMAG   =     F  perturbation theory with respect to B field
   DQ        =  0.001000  dq finite difference perturbation B field
   LLRAUG    =     F  two centre corrections for induced B field



--------------------------------------------------------------------------------------------------------


 molecular dynamics for ions
   using a microcanonical ensemble
 charge density and potential will be updated during run
 non-spin polarized calculation
 RMM-DIIS sequential band-by-band and
  variant of blocked Davidson during initial phase
 perform sub-space diagonalisation
    before iterative eigenvector-optimisation
 modified Broyden-mixing scheme, WC =      100.0
 initial mixing is a Kerker type mixing with AMIX =  0.4000 and BMIX =      1.0000
 Hartree-type preconditioning will be used
 using additional bands            4
 reciprocal scheme for non local part
 use partial core corrections
 calculate Harris-corrections to forces 
   (improved forces if not selfconsistent)
 use gradient corrections 
 use of overlap-Matrix (Vanderbilt PP)
 Gauss-broadening in eV      SIGMA  =   0.20


--------------------------------------------------------------------------------------------------------


  energy-cutoff  :      400.00
  volume of cell :     1004.42
      direct lattice vectors                 reciprocal lattice vectors
    10.219195456  0.000000000  0.000000000     0.097855062 -0.000271531 -0.002837301
     0.027142322  9.781636217  0.000000000     0.000000000  0.102232385  0.001022735
     0.291066724 -0.100522012 10.048157855     0.000000000  0.000000000  0.099520730

  length of vectors
    10.219195456  9.781673874 10.052875250     0.097896563  0.102237501  0.099520730


 
 k-points in units of 2pi/SCALE and weight: read from INCAR                         
   0.02446377  0.02549021  0.02442654       0.250
  -0.02446377  0.02562598  0.02584519       0.250
   0.02446377 -0.02562598  0.02391517       0.250
  -0.02446377 -0.02549021  0.02533382       0.250
 
 k-points in reciprocal lattice and weights: read from INCAR                         
   0.25000000  0.25000000  0.25000000       0.250
  -0.25000000  0.25000000  0.25000000       0.250
   0.25000000 -0.25000000  0.25000000       0.250
  -0.25000000 -0.25000000  0.25000000       0.250
 
 position of ions in fractional coordinates (direct lattice) 
   0.53772476  0.40621241  0.36004726
   0.39433789  0.47996776  0.43810769
   0.55188866  0.56535935  0.44285744
   0.52796410  0.41626268  0.53942774
   0.50331504  0.46714012  0.44535057
 
 position of ions in cartesian coordinates  (Angst):
   5.61093776  3.93722931  3.61781170
   4.17036194  4.65083052  4.40217519
   5.78410437  5.48562261  4.44990147
   5.56367618  4.01750571  5.42025513
   5.28578073  4.52462720  4.47495281
 


--------------------------------------------------------------------------------------------------------


 k-point  1 :   0.2500 0.2500 0.2500  plane waves:   18225
 k-point  2 :  -0.2500 0.2500 0.2500  plane waves:   18273
 k-point  3 :   0.2500-0.2500 0.2500  plane waves:   18245
 k-point  4 :  -0.2500-0.2500 0.2500  plane waves:   18255

 maximum and minimum number of plane-waves per node :      4594     4526

 maximum number of plane-waves:     18273
 maximum index in each direction: 
   IXMAX=   16   IYMAX=   16   IZMAX=   16
   IXMIN=  -16   IYMIN=  -16   IZMIN=  -16


 parallel 3D FFT for wavefunctions:
    minimum data exchange during FFTs selected (reduces bandwidth)
 parallel 3D FFT for charge:
    minimum data exchange during FFTs selected (reduces bandwidth)


 total amount of memory used by VASP MPI-rank0    53505. kBytes
=======================================================================

   base      :      30000. kBytes
   nonl-proj :       2701. kBytes
   fftplans  :       7845. kBytes
   grid      :      12367. kBytes
   one-center:          6. kBytes
   wavefun   :        586. kBytes
 
     INWAV:  cpu time    0.0000: real time    0.0001
 Broyden mixing: mesh for mixing (old mesh)
   NGX = 33   NGY = 31   NGZ = 33
  (NGX  =140   NGY  =128   NGZ  =140)
  gives a total of  33759 points

 initial charge density was supplied:
 charge density of overlapping atoms calculated
 number of electron       8.0000000 magnetization 
 keeping initial charge density in first step


--------------------------------------------------------------------------------------------------------


 Maximum index for augmentation-charges          156 (set IRDMAX)


--------------------------------------------------------------------------------------------------------


 First call to EWALD:  gamma=   0.177
 Maximum number of real-space cells 3x 3x 3
 Maximum number of reciprocal cells 3x 3x 3

    FEWALD:  cpu time    0.0019: real time    0.0020


--------------------------------------- Iteration      1(   1)  ---------------------------------------


    POTLOK:  cpu time    0.1410: real time    0.1450
    SETDIJ:  cpu time    0.0025: real time    0.0025
     EDDAV:  cpu time    0.1978: real time    0.2018
       DOS:  cpu time    0.0010: real time    0.0010
    --------------------------------------------
      LOOP:  cpu time    0.3423: real time    0.3503

 eigenvalue-minimisations  :    96
 total energy-change (2. order) : 0.1529684E+02  (-0.1919637E+03)
 number of electron       8.0000000 magnetization 
 augmentation part        8.0000000 magnetization 

 Free energy of the ion-electron system (eV)
  ---------------------------------------------------
  alpha Z        PSCENC =         0.24118514
  Ewald energy   TEWEN  =       128.00956188
  -Hartree energ DENC   =      -243.70994888
  -exchange      EXHF   =         0.00000000
  -V(xc)+E(xc)   XCENC  =        21.98665241
  PAW double counting   =       117.05815612     -117.66307307
  entropy T*S    EENTRO =        -0.00010762
  eigenvalues    EBANDS =       -87.66734317
  atomic energy  EATOM  =       197.04175453
  Solvation  Ediel_sol  =         0.00000000
  ---------------------------------------------------
  free energy    TOTEN  =        15.29683735 eV

  energy without entropy =       15.29694497  energy(sigma->0) =       15.29689116


--------------------------------------------------------------------------------------------------------




--------------------------------------- Iteration      1(   2)  ---------------------------------------


     EDDAV:  cpu time    0.1483: real time    0.1503
       DOS:  cpu time    0.0002: real time    0.0002
    --------------------------------------------
      LOOP:  cpu time    0.1484: real time    0.1504

 eigenvalue-minimisations  :    64
 total energy-change (2. order) :-0.3713872E+02  (-0.3713779E+02)
 number of electron       8.0000000 magnetization 
 augmentation part        8.0000000 magnetization 

 Free energy of the ion-electron system (eV)
  ---------------------------------------------------
  alpha Z        PSCENC =         0.24118514
  Ewald energy   TEWEN  =       128.00956188
  -Hartree energ DENC   =      -243.70994888
  -exchange      EXHF   =         0.00000000
  -V(xc)+E(xc)   XCENC  =        21.98665241
  PAW double counting   =       117.05815612     -117.66307307
  entropy T*S    EENTRO =        -0.00000000
  eigenvalues    EBANDS =      -124.80616751
  atomic energy  EATOM  =       197.04175453
  Solvation  Ediel_sol  =         0.00000000
  ---------------------------------------------------
  free energy    TOTEN  =       -21.84187938 eV

  energy without entropy =      -21.84187938  energy(sigma->0) =      -21.84187938


--------------------------------------------------------------------------------------------------------




--------------------------------------- Iteration      1(   3)  ---------------------------------------


     EDDAV:  cpu time    0.1524: real time    0.1529
       DOS:  cpu time    0.0002: real time    0.0002
    --------------------------------------------
      LOOP:  cpu time    0.1526: real time    0.1531

 eigenvalue-minimisations  :    64
 total energy-change (2. order) :-0.5401732E+01  (-0.5401732E+01)
 number of electron       8.0000000 magnetization 
 augmentation part        8.0000000 magnetization 

 Free energy of the ion-electron system (eV)
  ---------------------------------------------------
  alpha Z        PSCENC =         0.24118514
  Ewald energy   TEWEN  =       128.00956188
  -Hartree energ DENC   =      -243.70994888
  -exchange      EXHF   =         0.00000000
  -V(xc)+E(xc)   XCENC  =        21.98665241
  PAW double counting   =       117.05815612     -117.66307307
  entropy T*S    EENTRO =        -0.00000000
  eigenvalues    EBANDS =      -130.20789958
  atomic energy  EATOM  =       197.04175453
  Solvation  Ediel_sol  =         0.00000000
  ---------------------------------------------------
  free energy    TOTEN  =       -27.24361144 eV

  energy without entropy =      -27.24361144  energy(sigma->0) =      -27.24361144


--------------------------------------------------------------------------------------------------------




--------------------------------------- Iteration      1(   4)  ---------------------------------------


     EDDAV:  cpu time    0.2596: real time    0.2652
       DOS:  cpu time    0.0002: real time    0.0002
    --------------------------------------------
      LOOP:  cpu time    0.2598: real time    0.2654

 eigenvalue-minimisations  :   128
 total energy-change (2. order) :-0.2372295E+00  (-0.2372295E+00)
 number of electron       8.0000000 magnetization 
 augmentation part        8.0000000 magnetization 

 Free energy of the ion-electron system (eV)
  ---------------------------------------------------
  alpha Z        PSCENC =         0.24118514
  Ewald energy   TEWEN  =       128.00956188
  -Hartree energ DENC   =      -243.70994888
  -exchange      EXHF   =         0.00000000
  -V(xc)+E(xc)   XCENC  =        21.98665241
  PAW double counting   =       117.05815612     -117.66307307
  entropy T*S    EENTRO =        -0.00000000
  eigenvalues    EBANDS =      -130.44512912
  atomic energy  EATOM  =       197.04175453
  Solvation  Ediel_sol  =         0.00000000
  ---------------------------------------------------
  free energy    TOTEN  =       -27.48084098 eV

  energy without entropy =      -27.48084098  energy(sigma->0) =      -27.48084098


--------------------------------------------------------------------------------------------------------




--------------------------------------- Iteration      1(   5)  ---------------------------------------


     EDDAV:  cpu time    0.2028: real time    0.2148
       DOS:  cpu time    0.0002: real time    0.0002
    CHARGE:  cpu time    0.0216: real time    0.0216
    MIXING:  cpu time    0.0059: real time    0.0060
    --------------------------------------------
      LOOP:  cpu time    0.2306: real time    0.2427

 eigenvalue-minimisations  :    96
 total energy-change (2. order) :-0.1025138E-03  (-0.1025138E-03)
 number of electron       8.0000002 magnetization 
 augmentation part        0.2238380 magnetization 

 Broyden mixing:
  rms(total) = 0.86491E+00    rms(broyden)= 0.86467E+00
  rms(prec ) = 0.12213E+01
  weight for this iteration     100.00

 Free energy of the ion-electron system (eV)
  ---------------------------------------------------
  alpha Z        PSCENC =         0.24118514
  Ewald energy   TEWEN  =       128.00956188
  -Hartree energ DENC   =      -243.70994888
  -exchange      EXHF   =         0.00000000
  -V(xc)+E(xc)   XCENC  =        21.98665241
  PAW double counting   =       117.05815612     -117.66307307
  entropy T*S    EENTRO =        -0.00000000
  eigenvalues    EBANDS =      -130.44523163
  atomic energy  EATOM  =       197.04175453
  Solvation  Ediel_sol  =         0.00000000
  ---------------------------------------------------
  free energy    TOTEN  =       -27.48094350 eV

  energy without entropy =      -27.48094350  energy(sigma->0) =      -27.48094350


--------------------------------------------------------------------------------------------------------




--------------------------------------- Iteration      1(   6)  ---------------------------------------


    POTLOK:  cpu time    0.1397: real time    0.1414
    SETDIJ:  cpu time    0.0017: real time    0.0017
    EDDIAG:  cpu time    0.0425: real time    0.0456
  RMM-DIIS:  cpu time    0.1768: real time    0.1844
    ORTHCH:  cpu time    0.0027: real time    0.0028
       DOS:  cpu time    0.0006: real time    0.0006
    CHARGE:  cpu time    0.0455: real time    0.0475
    MIXING:  cpu time    0.0350: real time    0.0356
    --------------------------------------------
      LOOP:  cpu time    0.4443: real time    0.4596

 eigenvalue-minimisations  :    64
 total energy-change (2. order) : 0.2848888E+01  (-0.5263261E+00)
 number of electron       8.0000002 magnetization 
 augmentation part        0.1972819 magnetization 

 Broyden mixing:
  rms(total) = 0.42645E+00    rms(broyden)= 0.42635E+00
  rms(prec ) = 0.55145E+00
  weight for this iteration     100.00

 eigenvalues of (default mixing * dielectric matrix)
  average eigenvalue GAMMA=   1.3019
  1.3019

 Free energy of the ion-electron system (eV)
  ---------------------------------------------------
  alpha Z        PSCENC =         0.24118514
  Ewald energy   TEWEN  =       128.00956188
  -Hartree energ DENC   =      -263.28182695
  -exchange      EXHF   =         0.00000000
  -V(xc)+E(xc)   XCENC  =        23.17516339
  PAW double counting   =       237.09496339     -237.87259803
  entropy T*S    EENTRO =        -0.00000000
  eigenvalues    EBANDS =      -109.04025844
  atomic energy  EATOM  =       197.04175453
  Solvation  Ediel_sol  =         0.00000000
  ---------------------------------------------------
  free energy    TOTEN  =       -24.63205509 eV

  energy without entropy =      -24.63205509  energy(sigma->0) =      -24.63205509


--------------------------------------------------------------------------------------------------------




--------------------------------------- Iteration      1(   7)  ---------------------------------------


    POTLOK:  cpu time    0.2736: real time    0.2864
    SETDIJ:  cpu time    0.0017: real time    0.0017
    EDDIAG:  cpu time    0.0392: real time    0.0401
  RMM-DIIS:  cpu time    0.1568: real time    0.1595
    ORTHCH:  cpu time    0.0018: real time    0.0018
       DOS:  cpu time    0.0002: real time    0.0002
    CHARGE:  cpu time    0.0183: real time    0.0186
    MIXING:  cpu time    0.0052: real time    0.0052
    --------------------------------------------
      LOOP:  cpu time    0.4968: real time    0.5133

 eigenvalue-minimisations  :    64
 total energy-change (2. order) : 0.4830680E+00  (-0.1171174E+00)
 number of electron       8.0000002 magnetization 
 augmentation part        0.1869559 magnetization 

 Broyden mixing:
  rms(total) = 0.22710E+00    rms(broyden)= 0.22704E+00
  rms(prec ) = 0.27411E+00
  weight for this iteration     100.00

 eigenvalues of (default mixing * dielectric matrix)
  average eigenvalue GAMMA=   1.8410
  1.4514  2.2306

 Free energy of the ion-electron system (eV)
  ---------------------------------------------------
  alpha Z        PSCENC =         0.24118514
  Ewald energy   TEWEN  =       128.00956188
  -Hartree energ DENC   =      -274.78631592
  -exchange      EXHF   =         0.00000000
  -V(xc)+E(xc)   XCENC  =        24.02163393
  PAW double counting   =       361.41666796     -362.23232339
  entropy T*S    EENTRO =        -0.00000000
  eigenvalues    EBANDS =       -97.86115128
  atomic energy  EATOM  =       197.04175453
  Solvation  Ediel_sol  =         0.00000000
  ---------------------------------------------------
  free energy    TOTEN  =       -24.14898714 eV

  energy without entropy =      -24.14898714  energy(sigma->0) =      -24.14898714


--------------------------------------------------------------------------------------------------------




--------------------------------------- Iteration      1(   8)  ---------------------------------------


    POTLOK:  cpu time    0.1401: real time    0.1412
    SETDIJ:  cpu time    0.0017: real time    0.0017
    EDDIAG:  cpu time    0.0382: real time    0.0383
  RMM-DIIS:  cpu time    0.1588: real time    0.1592
    ORTHCH:  cpu time    0.0017: real time    0.0017
       DOS:  cpu time    0.0002: real time    0.0002
    CHARGE:  cpu time    0.0179: real time    0.0179
    MIXING:  cpu time    0.0048: real time    0.0048
    --------------------------------------------
      LOOP:  cpu time    0.3635: real time    0.3652

 eigenvalue-minimisations  :    64
 total energy-change (2. order) : 0.1455409E+00  (-0.1626488E-01)
 number of electron       8.0000002 magnetization 
 augmentation part        0.1855811 magnetization 

 Broyden mixing:
  rms(total) = 0.22700E-01    rms(broyden)= 0.22674E-01
  rms(prec ) = 0.52226E-01
  weight for this iteration     100.00

 eigenvalues of (default mixing * dielectric matrix)
  average eigenvalue GAMMA=   1.5459
  2.2479  0.9879  1.4019

 Free energy of the ion-electron system (eV)
  ---------------------------------------------------
  alpha Z        PSCENC =         0.24118514
  Ewald energy   TEWEN  =       128.00956188
  -Hartree energ DENC   =      -280.18979637
  -exchange      EXHF   =         0.00000000
  -V(xc)+E(xc)   XCENC  =        24.55750419
  PAW double counting   =       468.95107434     -469.73501796
  entropy T*S    EENTRO =        -0.00000000
  eigenvalues    EBANDS =       -92.87971202
  atomic energy  EATOM  =       197.04175453
  Solvation  Ediel_sol  =         0.00000000
  ---------------------------------------------------
  free energy    TOTEN  =       -24.00344628 eV

  energy without entropy =      -24.00344628  energy(sigma->0) =      -24.00344628


--------------------------------------------------------------------------------------------------------




--------------------------------------- Iteration      1(   9)  ---------------------------------------


    POTLOK:  cpu time    0.1397: real time    0.1409
    SETDIJ:  cpu time    0.0018: real time    0.0018
    EDDIAG:  cpu time    0.0389: real time    0.0394
  RMM-DIIS:  cpu time    0.1584: real time    0.1597
    ORTHCH:  cpu time    0.0017: real time    0.0017
       DOS:  cpu time    0.0002: real time    0.0002
    CHARGE:  cpu time    0.0175: real time    0.0179
    MIXING:  cpu time    0.0050: real time    0.0050
    --------------------------------------------
      LOOP:  cpu time    0.3633: real time    0.3667

 eigenvalue-minimisations  :    64
 total energy-change (2. order) : 0.5583013E-02  (-0.1091587E-02)
 number of electron       8.0000002 magnetization 
 augmentation part        0.1850214 magnetization 

 Broyden mixing:
  rms(total) = 0.19439E-01    rms(broyden)= 0.19435E-01
  rms(prec ) = 0.40028E-01
  weight for this iteration     100.00

 eigenvalues of (default mixing * dielectric matrix)
  average eigenvalue GAMMA=   2.0896
  1.0031  1.3696  2.9929  2.9929

 Free energy of the ion-electron system (eV)
  ---------------------------------------------------
  alpha Z        PSCENC =         0.24118514
  Ewald energy   TEWEN  =       128.00956188
  -Hartree energ DENC   =      -281.43344785
  -exchange      EXHF   =         0.00000000
  -V(xc)+E(xc)   XCENC  =        24.62577326
  PAW double counting   =       472.01922606     -472.80586259
  entropy T*S    EENTRO =        -0.00000000
  eigenvalues    EBANDS =       -91.69605370
  atomic energy  EATOM  =       197.04175453
  Solvation  Ediel_sol  =         0.00000000
  ---------------------------------------------------
  free energy    TOTEN  =       -23.99786327 eV

  energy without entropy =      -23.99786327  energy(sigma->0) =      -23.99786327


--------------------------------------------------------------------------------------------------------




--------------------------------------- Iteration      1(  10)  ---------------------------------------


    POTLOK:  cpu time    0.1301: real time    0.1331
    SETDIJ:  cpu time    0.0018: real time    0.0018
    EDDIAG:  cpu time    0.0387: real time    0.0408
  RMM-DIIS:  cpu time    0.1571: real time    0.1646
    ORTHCH:  cpu time    0.0020: real time    0.0020
       DOS:  cpu time    0.0005: real time    0.0005
    CHARGE:  cpu time    0.0177: real time    0.0180
    MIXING:  cpu time    0.0050: real time    0.0050
    --------------------------------------------
      LOOP:  cpu time    0.3528: real time    0.3658

 eigenvalue-minimisations  :    64
 total energy-change (2. order) : 0.6161034E-02  (-0.2427590E-02)
 number of electron       8.0000002 magnetization 
 augmentation part        0.1839849 magnetization 

 Broyden mixing:
  rms(total) = 0.27483E-01    rms(broyden)= 0.27481E-01
  rms(prec ) = 0.35017E-01
  weight for this iteration     100.00

 eigenvalues of (default mixing * dielectric matrix)
  average eigenvalue GAMMA=   1.7844
  3.0647  2.4168  1.2296  1.2296  0.9813

 Free energy of the ion-electron system (eV)
  ---------------------------------------------------
  alpha Z        PSCENC =         0.24118514
  Ewald energy   TEWEN  =       128.00956188
  -Hartree energ DENC   =      -283.61836459
  -exchange      EXHF   =         0.00000000
  -V(xc)+E(xc)   XCENC  =        24.69594510
  PAW double counting   =       456.40430089     -457.19439168
  entropy T*S    EENTRO =        -0.00000000
  eigenvalues    EBANDS =       -89.57169350
  atomic energy  EATOM  =       197.04175453
  Solvation  Ediel_sol  =         0.00000000
  ---------------------------------------------------
  free energy    TOTEN  =       -23.99170223 eV

  energy without entropy =      -23.99170223  energy(sigma->0) =      -23.99170223


--------------------------------------------------------------------------------------------------------




--------------------------------------- Iteration      1(  11)  ---------------------------------------


    POTLOK:  cpu time    0.1319: real time    0.1351
    SETDIJ:  cpu time    0.0016: real time    0.0016
    EDDIAG:  cpu time    0.0375: real time    0.0382
  RMM-DIIS:  cpu time    0.1578: real time    0.1601
    ORTHCH:  cpu time    0.0015: real time    0.0015
       DOS:  cpu time    0.0005: real time    0.0005
    CHARGE:  cpu time    0.0186: real time    0.0191
    MIXING:  cpu time    0.0051: real time    0.0051
    --------------------------------------------
      LOOP:  cpu time    0.3545: real time    0.3612

 eigenvalue-minimisations  :    64
 total energy-change (2. order) :-0.7467846E-03  (-0.8115053E-03)
 number of electron       8.0000002 magnetization 
 augmentation part        0.1843488 magnetization 

 Broyden mixing:
  rms(total) = 0.84262E-02    rms(broyden)= 0.84226E-02
  rms(prec ) = 0.14163E-01
  weight for this iteration     100.00

 eigenvalues of (default mixing * dielectric matrix)
  average eigenvalue GAMMA=   2.2661
  4.7835  3.0829  2.4271  1.2780  1.0125  1.0125

 Free energy of the ion-electron system (eV)
  ---------------------------------------------------
  alpha Z        PSCENC =         0.24118514
  Ewald energy   TEWEN  =       128.00956188
  -Hartree energ DENC   =      -283.51428168
  -exchange      EXHF   =         0.00000000
  -V(xc)+E(xc)   XCENC  =        24.71021904
  PAW double counting   =       465.46256217     -466.24516276
  entropy T*S    EENTRO =        -0.00000000
  eigenvalues    EBANDS =       -89.69828735
  atomic energy  EATOM  =       197.04175453
  Solvation  Ediel_sol  =         0.00000000
  ---------------------------------------------------
  free energy    TOTEN  =       -23.99244902 eV

  energy without entropy =      -23.99244902  energy(sigma->0) =      -23.99244902


--------------------------------------------------------------------------------------------------------




--------------------------------------- Iteration      1(  12)  ---------------------------------------


    POTLOK:  cpu time    0.1249: real time    0.1282
    SETDIJ:  cpu time    0.0016: real time    0.0016
    EDDIAG:  cpu time    0.0389: real time    0.0392
  RMM-DIIS:  cpu time    0.1600: real time    0.1631
    ORTHCH:  cpu time    0.0016: real time    0.0016
       DOS:  cpu time    0.0005: real time    0.0005
    CHARGE:  cpu time    0.0179: real time    0.0180
    MIXING:  cpu time    0.0053: real time    0.0054
    --------------------------------------------
      LOOP:  cpu time    0.3507: real time    0.3576

 eigenvalue-minimisations  :    64
 total energy-change (2. order) :-0.9407237E-02  (-0.3283763E-03)
 number of electron       8.0000002 magnetization 
 augmentation part        0.1845544 magnetization 

 Broyden mixing:
  rms(total) = 0.12018E-01    rms(broyden)= 0.12016E-01
  rms(prec ) = 0.15726E-01
  weight for this iteration     100.00

 eigenvalues of (default mixing * dielectric matrix)
  average eigenvalue GAMMA=   2.0129
  4.7697  2.9202  2.4252  1.2212  1.0060  1.0060  0.7417

 Free energy of the ion-electron system (eV)
  ---------------------------------------------------
  alpha Z        PSCENC =         0.24118514
  Ewald energy   TEWEN  =       128.00956188
  -Hartree energ DENC   =      -283.72384675
  -exchange      EXHF   =         0.00000000
  -V(xc)+E(xc)   XCENC  =        24.70224521
  PAW double counting   =       462.34189088     -463.12351278
  entropy T*S    EENTRO =        -0.00000000
  eigenvalues    EBANDS =       -89.49113437
  atomic energy  EATOM  =       197.04175453
  Solvation  Ediel_sol  =         0.00000000
  ---------------------------------------------------
  free energy    TOTEN  =       -24.00185625 eV

  energy without entropy =      -24.00185625  energy(sigma->0) =      -24.00185625


--------------------------------------------------------------------------------------------------------




--------------------------------------- Iteration      1(  13)  ---------------------------------------


    POTLOK:  cpu time    0.1253: real time    0.1284
    SETDIJ:  cpu time    0.0016: real time    0.0017
    EDDIAG:  cpu time    0.0383: real time    0.0387
  RMM-DIIS:  cpu time    0.1594: real time    0.1611
    ORTHCH:  cpu time    0.0015: real time    0.0015
       DOS:  cpu time    0.0002: real time    0.0002
    CHARGE:  cpu time    0.0182: real time    0.0183
    MIXING:  cpu time    0.0054: real time    0.0054
    --------------------------------------------
      LOOP:  cpu time    0.3499: real time    0.3553

 eigenvalue-minimisations  :    64
 total energy-change (2. order) :-0.5483894E-03  (-0.9615773E-04)
 number of electron       8.0000002 magnetization 
 augmentation part        0.1843172 magnetization 

 Broyden mixing:
  rms(total) = 0.46709E-02    rms(broyden)= 0.46706E-02
  rms(prec ) = 0.64410E-02
  weight for this iteration     100.00

 eigenvalues of (default mixing * dielectric matrix)
  average eigenvalue GAMMA=   2.3990
  6.0484  4.0170  2.4715  2.3326  1.2217  1.2217  0.9914  0.8876

 Free energy of the ion-electron system (eV)
  ---------------------------------------------------
  alpha Z        PSCENC =         0.24118514
  Ewald energy   TEWEN  =       128.00956188
  -Hartree energ DENC   =      -283.90502517
  -exchange      EXHF   =         0.00000000
  -V(xc)+E(xc)   XCENC  =        24.70733697
  PAW double counting   =       462.15482245     -462.93877645
  entropy T*S    EENTRO =        -0.00000000
  eigenvalues    EBANDS =       -89.31326399
  atomic energy  EATOM  =       197.04175453
  Solvation  Ediel_sol  =         0.00000000
  ---------------------------------------------------
  free energy    TOTEN  =       -24.00240464 eV

  energy without entropy =      -24.00240464  energy(sigma->0) =      -24.00240464


--------------------------------------------------------------------------------------------------------




--------------------------------------- Iteration      1(  14)  ---------------------------------------


    POTLOK:  cpu time    0.1265: real time    0.1278
    SETDIJ:  cpu time    0.0018: real time    0.0019
    EDDIAG:  cpu time    0.0379: real time    0.0393
  RMM-DIIS:  cpu time    0.1596: real time    0.1626
    ORTHCH:  cpu time    0.0016: real time    0.0016
       DOS:  cpu time    0.0003: real time    0.0003
    CHARGE:  cpu time    0.0178: real time    0.0179
    MIXING:  cpu time    0.0054: real time    0.0054
    --------------------------------------------
      LOOP:  cpu time    0.3509: real time    0.3568

 eigenvalue-minimisations  :    64
 total energy-change (2. order) :-0.2825232E-02  (-0.1280431E-03)
 number of electron       8.0000002 magnetization 
 augmentation part        0.1841916 magnetization 

 Broyden mixing:
  rms(total) = 0.28898E-02    rms(broyden)= 0.28879E-02
  rms(prec ) = 0.37956E-02
  weight for this iteration     100.00

 eigenvalues of (default mixing * dielectric matrix)
  average eigenvalue GAMMA=   2.3330
  6.4258  3.9996  2.5612  2.3584  1.2383  1.2383  1.2706  0.9881  0.9161

 Free energy of the ion-electron system (eV)
  ---------------------------------------------------
  alpha Z        PSCENC =         0.24118514
  Ewald energy   TEWEN  =       128.00956188
  -Hartree energ DENC   =      -283.91167710
  -exchange      EXHF   =         0.00000000
  -V(xc)+E(xc)   XCENC  =        24.69788270
  PAW double counting   =       461.48151320     -462.26681485
  entropy T*S    EENTRO =        -0.00000000
  eigenvalues    EBANDS =       -89.29863538
  atomic energy  EATOM  =       197.04175453
  Solvation  Ediel_sol  =         0.00000000
  ---------------------------------------------------
  free energy    TOTEN  =       -24.00522988 eV

  energy without entropy =      -24.00522988  energy(sigma->0) =      -24.00522988


--------------------------------------------------------------------------------------------------------




--------------------------------------- Iteration      1(  15)  ---------------------------------------


    POTLOK:  cpu time    0.1243: real time    0.1260
    SETDIJ:  cpu time    0.0017: real time    0.0017
    EDDIAG:  cpu time    0.0382: real time    0.0387
  RMM-DIIS:  cpu time    0.1585: real time    0.1636
    ORTHCH:  cpu time    0.0015: real time    0.0017
       DOS:  cpu time    0.0005: real time    0.0003
    CHARGE:  cpu time    0.0174: real time    0.0179
    MIXING:  cpu time    0.0056: real time    0.0056
    --------------------------------------------
      LOOP:  cpu time    0.3477: real time    0.3555

 eigenvalue-minimisations  :    64
 total energy-change (2. order) :-0.2618953E-03  (-0.4284349E-05)
 number of electron       8.0000002 magnetization 
 augmentation part        0.1841638 magnetization 

 Broyden mixing:
  rms(total) = 0.15468E-02    rms(broyden)= 0.15466E-02
  rms(prec ) = 0.20489E-02
  weight for this iteration     100.00

 eigenvalues of (default mixing * dielectric matrix)
  average eigenvalue GAMMA=   2.5289
  7.5255  4.8206  2.8425  2.6008  2.0869  1.2636  1.2636  0.9931  0.9931  0.8993

 Free energy of the ion-electron system (eV)
  ---------------------------------------------------
  alpha Z        PSCENC =         0.24118514
  Ewald energy   TEWEN  =       128.00956188
  -Hartree energ DENC   =      -283.89764839
  -exchange      EXHF   =         0.00000000
  -V(xc)+E(xc)   XCENC  =        24.69776370
  PAW double counting   =       461.62283697     -462.40752203
  entropy T*S    EENTRO =        -0.00000000
  eigenvalues    EBANDS =       -89.31342358
  atomic energy  EATOM  =       197.04175453
  Solvation  Ediel_sol  =         0.00000000
  ---------------------------------------------------
  free energy    TOTEN  =       -24.00549177 eV

  energy without entropy =      -24.00549177  energy(sigma->0) =      -24.00549177


--------------------------------------------------------------------------------------------------------




--------------------------------------- Iteration      1(  16)  ---------------------------------------


    POTLOK:  cpu time    0.1650: real time    0.1686
    SETDIJ:  cpu time    0.0017: real time    0.0018
    EDDIAG:  cpu time    0.0376: real time    0.0387
  RMM-DIIS:  cpu time    0.1584: real time    0.1626
    ORTHCH:  cpu time    0.0017: real time    0.0017
       DOS:  cpu time    0.0003: real time    0.0003
    CHARGE:  cpu time    0.0171: real time    0.0172
    MIXING:  cpu time    0.0063: real time    0.0064
    --------------------------------------------
      LOOP:  cpu time    0.3881: real time    0.3973

 eigenvalue-minimisations  :    64
 total energy-change (2. order) :-0.2064733E-03  (-0.9248693E-05)
 number of electron       8.0000002 magnetization 
 augmentation part        0.1842085 magnetization 

 Broyden mixing:
  rms(total) = 0.64214E-03    rms(broyden)= 0.64170E-03
  rms(prec ) = 0.87666E-03
  weight for this iteration     100.00

 eigenvalues of (default mixing * dielectric matrix)
  average eigenvalue GAMMA=   2.4831
  7.6881  4.7969  3.3305  2.4013  2.1035  1.6070  1.2514  1.2514  1.0287  0.9277
  0.9277

 Free energy of the ion-electron system (eV)
  ---------------------------------------------------
  alpha Z        PSCENC =         0.24118514
  Ewald energy   TEWEN  =       128.00956188
  -Hartree energ DENC   =      -283.86227493
  -exchange      EXHF   =         0.00000000
  -V(xc)+E(xc)   XCENC  =        24.69663866
  PAW double counting   =       461.63624165     -462.42041022
  entropy T*S    EENTRO =        -0.00000000
  eigenvalues    EBANDS =       -89.34839496
  atomic energy  EATOM  =       197.04175453
  Solvation  Ediel_sol  =         0.00000000
  ---------------------------------------------------
  free energy    TOTEN  =       -24.00569824 eV

  energy without entropy =      -24.00569824  energy(sigma->0) =      -24.00569824


--------------------------------------------------------------------------------------------------------




--------------------------------------- Iteration      1(  17)  ---------------------------------------


    POTLOK:  cpu time    0.1278: real time    0.1294
    SETDIJ:  cpu time    0.0016: real time    0.0016
    EDDIAG:  cpu time    0.0380: real time    0.0385
  RMM-DIIS:  cpu time    0.1592: real time    0.1628
    ORTHCH:  cpu time    0.0016: real time    0.0016
       DOS:  cpu time    0.0005: real time    0.0005
    CHARGE:  cpu time    0.0174: real time    0.0175
    MIXING:  cpu time    0.0066: real time    0.0067
    --------------------------------------------
      LOOP:  cpu time    0.3528: real time    0.3586

 eigenvalue-minimisations  :    64
 total energy-change (2. order) :-0.3816849E-04  (-0.2812403E-05)
 number of electron       8.0000002 magnetization 
 augmentation part        0.1841743 magnetization 

 Broyden mixing:
  rms(total) = 0.55152E-03    rms(broyden)= 0.55148E-03
  rms(prec ) = 0.77312E-03
  weight for this iteration     100.00

 eigenvalues of (default mixing * dielectric matrix)
  average eigenvalue GAMMA=   2.5756
  8.3946  5.2676  3.8555  2.5175  2.5175  1.8952  1.2901  1.2901  1.0478  0.9847
  0.9331  0.9130

 Free energy of the ion-electron system (eV)
  ---------------------------------------------------
  alpha Z        PSCENC =         0.24118514
  Ewald energy   TEWEN  =       128.00956188
  -Hartree energ DENC   =      -283.90695114
  -exchange      EXHF   =         0.00000000
  -V(xc)+E(xc)   XCENC  =        24.69871926
  PAW double counting   =       461.62318939     -462.40772130
  entropy T*S    EENTRO =        -0.00000000
  eigenvalues    EBANDS =       -89.30547418
  atomic energy  EATOM  =       197.04175453
  Solvation  Ediel_sol  =         0.00000000
  ---------------------------------------------------
  free energy    TOTEN  =       -24.00573641 eV

  energy without entropy =      -24.00573641  energy(sigma->0) =      -24.00573641


--------------------------------------------------------------------------------------------------------




--------------------------------------- Iteration      1(  18)  ---------------------------------------


    POTLOK:  cpu time    0.1288: real time    0.1323
    SETDIJ:  cpu time    0.0018: real time    0.0018
    EDDIAG:  cpu time    0.0384: real time    0.0388
  RMM-DIIS:  cpu time    0.1610: real time    0.1634
    ORTHCH:  cpu time    0.0016: real time    0.0016
       DOS:  cpu time    0.0005: real time    0.0005
    CHARGE:  cpu time    0.0178: real time    0.0180
    MIXING:  cpu time    0.0069: real time    0.0070
    --------------------------------------------
      LOOP:  cpu time    0.3567: real time    0.3634

 eigenvalue-minimisations  :    64
 total energy-change (2. order) :-0.9723640E-05  (-0.5503202E-06)
 number of electron       8.0000002 magnetization 
 augmentation part        0.1841873 magnetization 

 Broyden mixing:
  rms(total) = 0.63133E-04    rms(broyden)= 0.63036E-04
  rms(prec ) = 0.94804E-04
  weight for this iteration     100.00

 eigenvalues of (default mixing * dielectric matrix)
  average eigenvalue GAMMA=   2.6093
  8.4787  5.4793  3.8802  3.2328  2.3752  2.3137  1.6733  1.2746  1.2746  0.9016
  0.9862  0.9862  1.0647

 Free energy of the ion-electron system (eV)
  ---------------------------------------------------
  alpha Z        PSCENC =         0.24118514
  Ewald energy   TEWEN  =       128.00956188
  -Hartree energ DENC   =      -283.88689818
  -exchange      EXHF   =         0.00000000
  -V(xc)+E(xc)   XCENC  =        24.69774293
  PAW double counting   =       461.59639521     -462.38073447
  entropy T*S    EENTRO =        -0.00000000
  eigenvalues    EBANDS =       -89.32475317
  atomic energy  EATOM  =       197.04175453
  Solvation  Ediel_sol  =         0.00000000
  ---------------------------------------------------
  free energy    TOTEN  =       -24.00574614 eV

  energy without entropy =      -24.00574614  energy(sigma->0) =      -24.00574614


--------------------------------------------------------------------------------------------------------




--------------------------------------- Iteration      1(  19)  ---------------------------------------


    POTLOK:  cpu time    0.1325: real time    0.1345
    SETDIJ:  cpu time    0.0016: real time    0.0017
    EDDIAG:  cpu time    0.0385: real time    0.0392
  RMM-DIIS:  cpu time    0.1270: real time    0.1295
    ORTHCH:  cpu time    0.0016: real time    0.0016
       DOS:  cpu time    0.0002: real time    0.0002
    CHARGE:  cpu time    0.0180: real time    0.0181
    MIXING:  cpu time    0.0064: real time    0.0064
    --------------------------------------------
      LOOP:  cpu time    0.3257: real time    0.3313

 eigenvalue-minimisations  :    48
 total energy-change (2. order) :-0.3762065E-05  (-0.4551195E-07)
 number of electron       8.0000002 magnetization 
 augmentation part        0.1841916 magnetization 

 Broyden mixing:
  rms(total) = 0.62875E-04    rms(broyden)= 0.62836E-04
  rms(prec ) = 0.91945E-04
  weight for this iteration     100.00

 eigenvalues of (default mixing * dielectric matrix)
  average eigenvalue GAMMA=   2.5653
  8.5322  5.6103  3.8651  3.7319  2.4388  2.4388  1.9629  1.2723  1.2723  1.0311
  0.9285  0.9285  0.9507  0.9507

 Free energy of the ion-electron system (eV)
  ---------------------------------------------------
  alpha Z        PSCENC =         0.24118514
  Ewald energy   TEWEN  =       128.00956188
  -Hartree energ DENC   =      -283.88293686
  -exchange      EXHF   =         0.00000000
  -V(xc)+E(xc)   XCENC  =        24.69742318
  PAW double counting   =       461.57196204     -462.35628952
  entropy T*S    EENTRO =        -0.00000000
  eigenvalues    EBANDS =       -89.32841028
  atomic energy  EATOM  =       197.04175453
  Solvation  Ediel_sol  =         0.00000000
  ---------------------------------------------------
  free energy    TOTEN  =       -24.00574990 eV

  energy without entropy =      -24.00574990  energy(sigma->0) =      -24.00574990


--------------------------------------------------------------------------------------------------------




--------------------------------------- Iteration      1(  20)  ---------------------------------------


    POTLOK:  cpu time    0.1320: real time    0.1337
    SETDIJ:  cpu time    0.0016: real time    0.0016
    EDDIAG:  cpu time    0.0384: real time    0.0391
  RMM-DIIS:  cpu time    0.1149: real time    0.1168
    ORTHCH:  cpu time    0.0016: real time    0.0016
       DOS:  cpu time    0.0003: real time    0.0003
    --------------------------------------------
      LOOP:  cpu time    0.2888: real time    0.2931

 eigenvalue-minimisations  :    44
 total energy-change (2. order) :-0.9549690E-06  (-0.8848403E-08)
 number of electron       8.0000002 magnetization 
 augmentation part        0.1841916 magnetization 

 Free energy of the ion-electron system (eV)
  ---------------------------------------------------
  alpha Z        PSCENC =         0.24118514
  Ewald energy   TEWEN  =       128.00956188
  -Hartree energ DENC   =      -283.88414239
  -exchange      EXHF   =         0.00000000
  -V(xc)+E(xc)   XCENC  =        24.69745998
  PAW double counting   =       461.57302231     -462.35736900
  entropy T*S    EENTRO =        -0.00000000
  eigenvalues    EBANDS =       -89.32722329
  atomic energy  EATOM  =       197.04175453
  Solvation  Ediel_sol  =         0.00000000
  ---------------------------------------------------
  free energy    TOTEN  =       -24.00575085 eV

  energy without entropy =      -24.00575085  energy(sigma->0) =      -24.00575085


--------------------------------------------------------------------------------------------------------




 average (electrostatic) potential at core
  the test charge radii are     0.5201  0.6991
  (the norm of the test charge is              1.0000)
       1 -41.5537       2 -41.3044       3 -41.6081       4 -41.4222       5 -57.9886
 
 
 
 E-fermi :  -8.2174     XC(G=0):  -0.6985     alpha+bet : -0.2097


 k-point     1 :       0.2500    0.2500    0.2500
  band No.  band energies     occupation 
      1     -16.8559      2.00000
      2      -9.4005      2.00000
      3      -9.2526      2.00000
      4      -9.1543      2.00000
      5      -0.3240      0.00000
      6       0.5641      0.00000
      7       0.6704      0.00000
      8       0.7044      0.00000

 k-point     2 :      -0.2500    0.2500    0.2500
  band No.  band energies     occupation 
      1     -16.8559      2.00000
      2      -9.4006      2.00000
      3      -9.2528      2.00000
      4      -9.1546      2.00000
      5      -0.3181      0.00000
      6       0.5458      0.00000
      7       0.6442      0.00000
      8       0.7006      0.00000

 k-point     3 :       0.2500   -0.2500    0.2500
  band No.  band energies     occupation 
      1     -16.8559      2.00000
      2      -9.4006      2.00000
      3      -9.2527      2.00000
      4      -9.1543      2.00000
      5      -0.3248      0.00000
      6       0.5598      0.00000
      7       0.6718      0.00000
      8       0.7082      0.00000

 k-point     4 :      -0.2500   -0.2500    0.2500
  band No.  band energies     occupation 
      1     -16.8559      2.00000
      2      -9.4006      2.00000
      3      -9.2528      2.00000
      4      -9.1544      2.00000
      5      -0.3206      0.00000
      6       0.5517      0.00000
      7       0.6515      0.00000
      8       0.7085      0.00000


--------------------------------------------------------------------------------------------------------


 soft charge-density along one line, spin component           1
         0         1         2         3         4         5         6         7         8         9
 total charge-density along one line
 
 pseudopotential strength for first ion, spin component:           1
 -2.341  -4.035  -0.001  -0.001   0.001
 -4.035  -6.867  -0.003  -0.004   0.002
 -0.001  -0.003  -0.337   0.002  -0.001
 -0.001  -0.004   0.002  -0.335  -0.001
  0.001   0.002  -0.001  -0.001  -0.338
 total augmentation occupancy for first ion, spin component:           1
  3.577  -0.643   0.237   0.347  -0.131
 -0.643   0.130  -0.044  -0.064   0.024
  0.237  -0.044   0.023   0.019  -0.007
  0.347  -0.064   0.019   0.037  -0.011
 -0.131   0.024  -0.007  -0.011   0.013


------------------------ aborting loop because EDIFF is reached ----------------------------------------


    CHARGE:  cpu time    0.0176: real time    0.0178
    FORLOC:  cpu time    0.0140: real time    0.0142
    FORNL :  cpu time    0.0226: real time    0.0229
    STRESS:  cpu time    0.1708: real time    0.1732
    FORCOR:  cpu time    0.1348: real time    0.1366
    FORHAR:  cpu time    0.0455: real time    0.0459
    MIXING:  cpu time    0.0071: real time    0.0071
    OFIELD:  cpu time    0.0000: real time    0.0000

  FORCE on cell =-STRESS in cart. coord.  units (eV):
  Direction    XX          YY          ZZ          XY          YZ          ZX
  --------------------------------------------------------------------------------------
  Alpha Z     0.24119     0.24119     0.24119
  Ewald      40.12669    44.43430    43.44854     1.70239     0.64179     2.07173
  Hartree    92.63474    96.77073    94.48192     0.28345    -0.09025     1.04510
  E(xc)     -27.15425   -27.17720   -27.15718     0.00484     0.00067     0.01175
  Local    -191.90863  -199.92544  -196.49304    -1.53013    -0.27918    -2.95005
  n-local   -15.72127   -15.87050   -15.80575    -0.03300    -0.03491     0.03023
  augment     0.12156     0.11560     0.11607    -0.00402    -0.00264    -0.00048
  Kinetic   100.39432   101.59934   100.59280    -0.21539     0.00093    -0.58442
  Fock        0.00000     0.00000     0.00000     0.00000     0.00000     0.00000
  -------------------------------------------------------------------------------------
  Total      -1.26566     0.18801    -0.57545     0.20814     0.23641    -0.37614
  in kB      -2.01889     0.29990    -0.91791     0.33201     0.37711    -0.59999
  external pressure =       -0.88 kB  Pullay stress =        0.00 kB

  kinetic pressure (ideal gas correction) =      0.00 kB
  total pressure  =     -0.88 kB
  Total+kin.    -2.019       0.300      -0.918       0.332       0.377      -0.600

 VOLUME and BASIS-vectors are now :
 -----------------------------------------------------------------------------
  energy-cutoff  :      400.00
  volume of cell :     1004.42
      direct lattice vectors                 reciprocal lattice vectors
    10.219195456  0.000000000  0.000000000     0.097855062 -0.000271531 -0.002837301
     0.027142322  9.781636217  0.000000000     0.000000000  0.102232385  0.001022735
     0.291066724 -0.100522012 10.048157855     0.000000000  0.000000000  0.099520730

  length of vectors
    10.219195456  9.781673874 10.052875250     0.097896563  0.102237501  0.099520730


 FORCES acting on ions
    electron-ion (+dipol)            ewald-force                    non-local-force                 convergence-correction
 -----------------------------------------------------------------------------------------------
   -.159E+02 0.287E+02 0.418E+02   0.177E+02 -.319E+02 -.464E+02   -.166E+01 0.302E+01 0.444E+01   0.894E-04 -.125E-03 -.205E-03
   0.511E+02 -.577E+01 0.324E+01   -.554E+02 0.631E+01 -.341E+01   0.506E+01 -.555E+00 0.358E+00   -.261E-03 0.296E-04 -.198E-04
   -.245E+02 -.474E+02 0.117E+01   0.273E+02 0.529E+02 -.134E+01   -.265E+01 -.506E+01 0.123E+00   0.130E-03 0.217E-03 -.159E-04
   -.130E+02 0.239E+02 -.446E+02   0.142E+02 -.263E+02 0.488E+02   -.136E+01 0.242E+01 -.456E+01   0.734E-04 -.112E-03 0.216E-03
   0.320E+01 0.834E+00 -.203E+01   -.377E+01 -.102E+01 0.232E+01   -.304E+00 -.120E+00 0.456E-01   0.438E-04 0.109E-04 -.598E-04
 -----------------------------------------------------------------------------------------------
   0.916E+00 0.294E+00 -.405E+00   -.178E-14 0.355E-14 -.711E-14   -.916E+00 -.293E+00 0.405E+00   0.763E-04 0.202E-04 -.843E-04
 
 
 POSITION                                       TOTAL-FORCE (eV/Angst)
 -----------------------------------------------------------------------------------
      5.61094      3.93723      3.61781         0.146687     -0.226207     -0.151968
      4.17036      4.65083      4.40218         0.835819     -0.019787      0.193657
      5.78410      5.48562      4.44990         0.092070      0.493204     -0.045619
      5.56368      4.01751      5.42026        -0.202868      0.059442     -0.333608
      5.28578      4.52463      4.47495        -0.871911     -0.305974      0.337404
 -----------------------------------------------------------------------------------
    total drift:                               -0.000203      0.000678     -0.000133


--------------------------------------------------------------------------------------------------------



  FREE ENERGIE OF THE ION-ELECTRON SYSTEM (eV)
  ---------------------------------------------------
  free  energy   TOTEN  =       -24.00575085 eV

  energy  without entropy=      -24.00575085  energy(sigma->0) =      -24.00575085
 


--------------------------------------------------------------------------------------------------------


    POTLOK:  cpu time    0.1352: real time    0.1371


--------------------------------------------------------------------------------------------------------


           RANDOM_SEED =         172240186                0                0
           RANDOM_SEED =         172240186               30                0
   IONSTEP:  cpu time    0.0030: real time    0.0030

  ENERGY OF THE ELECTRON-ION-THERMOSTAT SYSTEM (eV)
  ---------------------------------------------------
% ion-electron   TOTEN  =       -24.005751  see above
  kinetic energy EKIN   =         0.000398
  kin. lattice  EKIN_LAT=         0.000000  (temperature    0.77 K)
  nose potential ES     =         0.000000
  nose kinetic   EPS    =         0.000000
  ---------------------------------------------------
  total energy   ETOTAL =       -24.005353 eV

  maximum distance moved by ions :      0.20E-03

    WAVPRE:  cpu time    0.0419: real time    0.0426
    FEWALD:  cpu time    0.0007: real time    0.0007
    ORTHCH:  cpu time    0.0093: real time    0.0093
     LOOP+:  cpu time    7.2277: real time    7.3783


--------------------------------------- Iteration      2(   1)  ---------------------------------------


    POTLOK:  cpu time    0.1344: real time    0.1348
    SETDIJ:  cpu time    0.0018: real time    0.0018
     EDDAV:  cpu time    0.1726: real time    0.1800
       DOS:  cpu time    0.0003: real time    0.0003
    CHARGE:  cpu time    0.0170: real time    0.0170
    MIXING:  cpu time    0.0046: real time    0.0047
    --------------------------------------------
      LOOP:  cpu time    0.3308: real time    0.3387

 eigenvalue-minimisations  :    80
 total energy-change (2. order) :-0.3071609E-02  (-0.3268826E-03)
 number of electron       8.0000001 magnetization 
 augmentation part        0.1842671 magnetization 

 Broyden mixing:
  rms(total) = 0.23489E-02    rms(broyden)= 0.23467E-02
  rms(prec ) = 0.27444E-02
  weight for this iteration     100.00

 Free energy of the ion-electron system (eV)
  ---------------------------------------------------
  alpha Z        PSCENC =         0.24118514
  Ewald energy   TEWEN  =       128.06285635
  -Hartree energ DENC   =      -283.92216186
  -exchange      EXHF   =         0.00000000
  -V(xc)+E(xc)   XCENC  =        24.69934586
  PAW double counting   =       461.57745070     -462.36181738
  entropy T*S    EENTRO =        -0.00000000
  eigenvalues    EBANDS =       -89.34743484
  atomic energy  EATOM  =       197.04175453
  Solvation  Ediel_sol  =         0.00000000
  ---------------------------------------------------
  free energy    TOTEN  =       -24.00882151 eV

  energy without entropy =      -24.00882151  energy(sigma->0) =      -24.00882151


--------------------------------------------------------------------------------------------------------




--------------------------------------- Iteration      2(   2)  ---------------------------------------


    POTLOK:  cpu time    0.1353: real time    0.1362
    SETDIJ:  cpu time    0.0017: real time    0.0017
    EDDIAG:  cpu time    0.0376: real time    0.0378
  RMM-DIIS:  cpu time    0.1599: real time    0.1601
    ORTHCH:  cpu time    0.0019: real time    0.0019
       DOS:  cpu time    0.0002: real time    0.0002
    CHARGE:  cpu time    0.0178: real time    0.0178
    MIXING:  cpu time    0.0047: real time    0.0048
    --------------------------------------------
      LOOP:  cpu time    0.3591: real time    0.3604

 eigenvalue-minimisations  :    64
 total energy-change (2. order) :-0.1374250E-05  (-0.1031361E-04)
 number of electron       8.0000001 magnetization 
 augmentation part        0.1842565 magnetization 

 Broyden mixing:
  rms(total) = 0.15530E-02    rms(broyden)= 0.15523E-02
  rms(prec ) = 0.18007E-02
  weight for this iteration     100.00

 eigenvalues of (default mixing * dielectric matrix)
  average eigenvalue GAMMA=   1.9845
  1.9845

 Free energy of the ion-electron system (eV)
  ---------------------------------------------------
  alpha Z        PSCENC =         0.24118514
  Ewald energy   TEWEN  =       128.06285635
  -Hartree energ DENC   =      -283.93227163
  -exchange      EXHF   =         0.00000000
  -V(xc)+E(xc)   XCENC  =        24.69987370
  PAW double counting   =       461.73234984     -462.51682276
  entropy T*S    EENTRO =        -0.00000000
  eigenvalues    EBANDS =       -89.33774804
  atomic energy  EATOM  =       197.04175453
  Solvation  Ediel_sol  =         0.00000000
  ---------------------------------------------------
  free energy    TOTEN  =       -24.00882288 eV

  energy without entropy =      -24.00882288  energy(sigma->0) =      -24.00882288


--------------------------------------------------------------------------------------------------------




--------------------------------------- Iteration      2(   3)  ---------------------------------------


    POTLOK:  cpu time    0.1339: real time    0.1347
    SETDIJ:  cpu time    0.0017: real time    0.0017
    EDDIAG:  cpu time    0.0382: real time    0.0383
  RMM-DIIS:  cpu time    0.1596: real time    0.1599
    ORTHCH:  cpu time    0.0015: real time    0.0015
       DOS:  cpu time    0.0004: real time    0.0004
    CHARGE:  cpu time    0.0176: real time    0.0176
    MIXING:  cpu time    0.0047: real time    0.0047
    --------------------------------------------
      LOOP:  cpu time    0.3576: real time    0.3588

 eigenvalue-minimisations  :    64
 total energy-change (2. order) : 0.1088702E-05  (-0.1388549E-05)
 number of electron       8.0000001 magnetization 
 augmentation part        0.1842461 magnetization 

 Broyden mixing:
  rms(total) = 0.30225E-03    rms(broyden)= 0.30160E-03
  rms(prec ) = 0.37247E-03
  weight for this iteration     100.00

 eigenvalues of (default mixing * dielectric matrix)
  average eigenvalue GAMMA=   1.6562
  1.0693  2.2430

 Free energy of the ion-electron system (eV)
  ---------------------------------------------------
  alpha Z        PSCENC =         0.24118514
  Ewald energy   TEWEN  =       128.06285635
  -Hartree energ DENC   =      -283.93895468
  -exchange      EXHF   =         0.00000000
  -V(xc)+E(xc)   XCENC  =        24.70023172
  PAW double counting   =       461.83974923     -462.62429418
  entropy T*S    EENTRO =        -0.00000000
  eigenvalues    EBANDS =       -89.33134989
  atomic energy  EATOM  =       197.04175453
  Solvation  Ediel_sol  =         0.00000000
  ---------------------------------------------------
  free energy    TOTEN  =       -24.00882179 eV

  energy without entropy =      -24.00882179  energy(sigma->0) =      -24.00882179


--------------------------------------------------------------------------------------------------------




--------------------------------------- Iteration      2(   4)  ---------------------------------------


    POTLOK:  cpu time    0.1350: real time    0.1353
    SETDIJ:  cpu time    0.0017: real time    0.0017
    EDDIAG:  cpu time    0.0383: real time    0.0384
  RMM-DIIS:  cpu time    0.1289: real time    0.1294
    ORTHCH:  cpu time    0.0015: real time    0.0015
       DOS:  cpu time    0.0002: real time    0.0002
    --------------------------------------------
      LOOP:  cpu time    0.3056: real time    0.3064

 eigenvalue-minimisations  :    48
 total energy-change (2. order) : 0.1331905E-06  (-0.4098719E-07)
 number of electron       8.0000001 magnetization 
 augmentation part        0.1842461 magnetization 

 Free energy of the ion-electron system (eV)
  ---------------------------------------------------
  alpha Z        PSCENC =         0.24118514
  Ewald energy   TEWEN  =       128.06285635
  -Hartree energ DENC   =      -283.93690139
  -exchange      EXHF   =         0.00000000
  -V(xc)+E(xc)   XCENC  =        24.70014634
  PAW double counting   =       461.84153687     -462.62605364
  entropy T*S    EENTRO =        -0.00000000
  eigenvalues    EBANDS =       -89.33334586
  atomic energy  EATOM  =       197.04175453
  Solvation  Ediel_sol  =         0.00000000
  ---------------------------------------------------
  free energy    TOTEN  =       -24.00882166 eV

  energy without entropy =      -24.00882166  energy(sigma->0) =      -24.00882166


--------------------------------------------------------------------------------------------------------




 average (electrostatic) potential at core
  the test charge radii are     0.5201  0.6991
  (the norm of the test charge is              1.0000)
       1 -41.5473       2 -41.3179       3 -41.5972       4 -41.4280       5 -57.9860
 
 
 
 E-fermi :  -8.2188     XC(G=0):  -0.7001     alpha+bet : -0.2097


 k-point     1 :       0.2500    0.2500    0.2500
  band No.  band energies     occupation 
      1     -16.8568      2.00000
      2      -9.3973      2.00000
      3      -9.2527      2.00000
      4      -9.1596      2.00000
      5      -0.3237      0.00000
      6       0.5654      0.00000
      7       0.6703      0.00000
      8       0.7021      0.00000

 k-point     2 :      -0.2500    0.2500    0.2500
  band No.  band energies     occupation 
      1     -16.8568      2.00000
      2      -9.3973      2.00000
      3      -9.2529      2.00000
      4      -9.1599      2.00000
      5      -0.3178      0.00000
      6       0.5473      0.00000
      7       0.6453      0.00000
      8       0.6975      0.00000

 k-point     3 :       0.2500   -0.2500    0.2500
  band No.  band energies     occupation 
      1     -16.8568      2.00000
      2      -9.3974      2.00000
      3      -9.2528      2.00000
      4      -9.1597      2.00000
      5      -0.3245      0.00000
      6       0.5610      0.00000
      7       0.6719      0.00000
      8       0.7064      0.00000

 k-point     4 :      -0.2500   -0.2500    0.2500
  band No.  band energies     occupation 
      1     -16.8568      2.00000
      2      -9.3974      2.00000
      3      -9.2528      2.00000
      4      -9.1598      2.00000
      5      -0.3203      0.00000
      6       0.5541      0.00000
      7       0.6524      0.00000
      8       0.7046      0.00000


--------------------------------------------------------------------------------------------------------


 soft charge-density along one line, spin component           1
         0         1         2         3         4         5         6         7         8         9
 total charge-density along one line
 
 pseudopotential strength for first ion, spin component:           1
 -2.341  -4.035  -0.001  -0.001   0.001
 -4.035  -6.866  -0.003  -0.004   0.002
 -0.001  -0.003  -0.337   0.002  -0.001
 -0.001  -0.004   0.002  -0.335  -0.001
  0.001   0.002  -0.001  -0.001  -0.338
 total augmentation occupancy for first ion, spin component:           1
  3.574  -0.643   0.237   0.346  -0.131
 -0.643   0.130  -0.044  -0.064   0.024
  0.237  -0.044   0.022   0.019  -0.007
  0.346  -0.064   0.019   0.037  -0.011
 -0.131   0.024  -0.007  -0.011   0.013


------------------------ aborting loop because EDIFF is reached ----------------------------------------


    CHARGE:  cpu time    0.0171: real time    0.0171
    FORLOC:  cpu time    0.0142: real time    0.0142
    FORNL :  cpu time    0.0222: real time    0.0222
    STRESS:  cpu time    0.1704: real time    0.1708
    FORCOR:  cpu time    0.1359: real time    0.1362
    FORHAR:  cpu time    0.0456: real time    0.0456
    MIXING:  cpu time    0.0052: real time    0.0052
    OFIELD:  cpu time    0.0001: real time    0.0000

  FORCE on cell =-STRESS in cart. coord.  units (eV):
  Direction    XX          YY          ZZ          XY          YZ          ZX
  --------------------------------------------------------------------------------------
  Alpha Z     0.24119     0.24119     0.24119
  Ewald      40.20087    44.42437    43.43758     1.63838     0.59587     2.06263
  Hartree    92.62598    96.81577    94.49214     0.28497    -0.08606     1.02896
  E(xc)     -27.15747   -27.17954   -27.16014     0.00487     0.00075     0.01143
  Local    -191.93651  -199.98950  -196.49679    -1.49298    -0.25788    -2.91620
  n-local   -15.73197   -15.87037   -15.81045    -0.03024    -0.03231     0.02830
  augment     0.12113     0.11585     0.11602    -0.00377    -0.00243    -0.00059
  Kinetic   100.42891   101.58646   100.61123    -0.21748    -0.00405    -0.56957
  Fock        0.00000     0.00000     0.00000     0.00000     0.00000     0.00000
  -------------------------------------------------------------------------------------
  Total      -1.20787     0.14421    -0.56922     0.18375     0.21388    -0.35503
  in kB      -1.92671     0.23004    -0.90799     0.29311     0.34117    -0.56632
  external pressure =       -0.87 kB  Pullay stress =        0.00 kB

  kinetic pressure (ideal gas correction) =      0.00 kB
  total pressure  =     -0.87 kB
  Total+kin.    -1.924       0.231      -0.907       0.293       0.341      -0.566

 VOLUME and BASIS-vectors are now :
 -----------------------------------------------------------------------------
  energy-cutoff  :      400.00
  volume of cell :     1004.42
      direct lattice vectors                 reciprocal lattice vectors
    10.219195456  0.000000000  0.000000000     0.097855062 -0.000271531 -0.002837301
     0.027142322  9.781636217  0.000000000     0.000000000  0.102232385  0.001022735
     0.291066724 -0.100522012 10.048157855     0.000000000  0.000000000  0.099520730

  length of vectors
    10.219195456  9.781673874 10.052875250     0.097896563  0.102237501  0.099520730


 FORCES acting on ions
    electron-ion (+dipol)            ewald-force                    non-local-force                 convergence-correction
 -----------------------------------------------------------------------------------------------
   -.159E+02 0.287E+02 0.418E+02   0.177E+02 -.319E+02 -.464E+02   -.166E+01 0.301E+01 0.443E+01   -.630E-03 -.460E-04 0.484E-03
   0.512E+02 -.579E+01 0.324E+01   -.555E+02 0.634E+01 -.341E+01   0.509E+01 -.560E+00 0.358E+00   0.460E-05 -.231E-03 0.333E-03
   -.245E+02 -.473E+02 0.118E+01   0.272E+02 0.528E+02 -.135E+01   -.264E+01 -.504E+01 0.124E+00   -.652E-03 -.352E-03 0.298E-03
   -.130E+02 0.239E+02 -.446E+02   0.142E+02 -.263E+02 0.489E+02   -.136E+01 0.243E+01 -.457E+01   -.650E-03 -.526E-05 -.423E-04
   0.301E+01 0.770E+00 -.193E+01   -.354E+01 -.938E+00 0.220E+01   -.269E+00 -.107E+00 0.285E-01   -.307E-02 -.101E-02 0.152E-02
 -----------------------------------------------------------------------------------------------
   0.846E+00 0.268E+00 -.371E+00   0.533E-14 0.355E-14 -.711E-14   -.841E+00 -.265E+00 0.368E+00   -.500E-02 -.164E-02 0.260E-02
 
 
 POSITION                                       TOTAL-FORCE (eV/Angst)
 -----------------------------------------------------------------------------------
      5.61129      3.93668      3.61744         0.139277     -0.210559     -0.133960
      4.17237      4.65078      4.40264         0.775743     -0.014059      0.186843
      5.78433      5.48681      4.44979         0.075272      0.452206     -0.044369
[...]
 -----------------------------------------------------------------------------------------------
   -.777E+00 -.236E+00 0.366E+00   -.178E-14 -.711E-14 0.000E+00   0.778E+00 0.236E+00 -.366E+00   -.247E-03 -.235E-04 0.118E-03
 
 
 POSITION                                       TOTAL-FORCE (eV/Angst)
 -----------------------------------------------------------------------------------
      5.62036      3.92415      3.61204        -0.031977      0.103865      0.200135
      4.21557      4.65168      4.41585        -0.691663      0.118708      0.010494
      5.78547      5.51172      4.44656        -0.205096     -0.316813     -0.004381
      5.55048      4.01824      5.40178         0.043916     -0.162947      0.228491
      5.28222      4.52341      4.47611         0.885140      0.257153     -0.434788
 -----------------------------------------------------------------------------------
    total drift:                                0.000321     -0.000035     -0.000048


--------------------------------------------------------------------------------------------------------



  FREE ENERGIE OF THE ION-ELECTRON SYSTEM (eV)
  ---------------------------------------------------
  free  energy   TOTEN  =       -24.01738548 eV

  energy  without entropy=      -24.01738548  energy(sigma->0) =      -24.01738548
 
 d Force =-0.4996559E-02[-0.601E-02,-0.398E-02]  d Energy =-0.4992187E-02-0.437E-05
 d Force =-0.2308706E+00[-0.233E+00,-0.229E+00]  d Ewald  =-0.2308672E+00-0.341E-05


--------------------------------------------------------------------------------------------------------


    POTLOK:  cpu time    0.1352: real time    0.1359


--------------------------------------------------------------------------------------------------------


           RANDOM_SEED =         172240186               30                0
   IONSTEP:  cpu time    0.0001: real time    0.0001

  ENERGY OF THE ELECTRON-ION-THERMOSTAT SYSTEM (eV)
  ---------------------------------------------------
% ion-electron   TOTEN  =       -24.017385  see above
  kinetic energy EKIN   =         0.011855
  kin. lattice  EKIN_LAT=         0.000000  (temperature   22.93 K)
  nose potential ES     =         0.000000
  nose kinetic   EPS    =         0.000000
  ---------------------------------------------------
  total energy   ETOTAL =       -24.005530 eV

  maximum distance moved by ions :      0.47E-03

    WAVPRE:  cpu time    0.0479: real time    0.0485
    FEWALD:  cpu time    0.0006: real time    0.0006
    ORTHCH:  cpu time    0.0092: real time    0.0094
 Prediction of Wavefunctions ALPHA= 2.193 BETA=-1.231
     LOOP+:  cpu time    1.9080: real time    1.9346


--------------------------------------- Iteration     10(   1)  ---------------------------------------


    POTLOK:  cpu time    0.1319: real time    0.1330
    SETDIJ:  cpu time    0.0016: real time    0.0016
     EDDAV:  cpu time    0.1827: real time    0.1860
       DOS:  cpu time    0.0003: real time    0.0003
    CHARGE:  cpu time    0.0175: real time    0.0176
    MIXING:  cpu time    0.0044: real time    0.0044
    --------------------------------------------
      LOOP:  cpu time    0.3384: real time    0.3430

 eigenvalue-minimisations  :    88
 total energy-change (2. order) : 0.4495426E-02  (-0.4185639E-04)
 number of electron       8.0000001 magnetization 
 augmentation part        0.1861734 magnetization 

 Broyden mixing:
  rms(total) = 0.30296E-03    rms(broyden)= 0.30253E-03
  rms(prec ) = 0.32405E-03
  weight for this iteration     100.00

 Free energy of the ion-electron system (eV)
  ---------------------------------------------------
  alpha Z        PSCENC =         0.24118514
  Ewald energy   TEWEN  =       129.70411782
  -Hartree energ DENC   =      -285.37961753
  -exchange      EXHF   =         0.00000000
  -V(xc)+E(xc)   XCENC  =        24.77672028
  PAW double counting   =       471.70336782     -472.49370606
  entropy T*S    EENTRO =        -0.00000000
  eigenvalues    EBANDS =       -89.60671149
  atomic energy  EATOM  =       197.04175453
  Solvation  Ediel_sol  =         0.00000000
  ---------------------------------------------------
  free energy    TOTEN  =       -24.01288949 eV

  energy without entropy =      -24.01288949  energy(sigma->0) =      -24.01288949


--------------------------------------------------------------------------------------------------------




--------------------------------------- Iteration     10(   2)  ---------------------------------------


    POTLOK:  cpu time    0.1300: real time    0.1310
    SETDIJ:  cpu time    0.0018: real time    0.0018
    EDDIAG:  cpu time    0.0379: real time    0.0384
  RMM-DIIS:  cpu time    0.1578: real time    0.1605
    ORTHCH:  cpu time    0.0016: real time    0.0016
       DOS:  cpu time    0.0002: real time    0.0002
    CHARGE:  cpu time    0.0176: real time    0.0181
    MIXING:  cpu time    0.0047: real time    0.0048
    --------------------------------------------
      LOOP:  cpu time    0.3516: real time    0.3565

 eigenvalue-minimisations  :    64
 total energy-change (2. order) :-0.1276301E-05  (-0.8361850E-06)
 number of electron       8.0000001 magnetization 
 augmentation part        0.1861809 magnetization 

 Broyden mixing:
  rms(total) = 0.89669E-04    rms(broyden)= 0.89058E-04
  rms(prec ) = 0.10283E-03
  weight for this iteration     100.00

 eigenvalues of (default mixing * dielectric matrix)
  average eigenvalue GAMMA=   0.8847
  0.8847

 Free energy of the ion-electron system (eV)
  ---------------------------------------------------
  alpha Z        PSCENC =         0.24118514
  Ewald energy   TEWEN  =       129.70411782
  -Hartree energ DENC   =      -285.38013659
  -exchange      EXHF   =         0.00000000
  -V(xc)+E(xc)   XCENC  =        24.77669566
  PAW double counting   =       471.76361083     -472.55391781
  entropy T*S    EENTRO =        -0.00000000
  eigenvalues    EBANDS =       -89.60620035
  atomic energy  EATOM  =       197.04175453
  Solvation  Ediel_sol  =         0.00000000
  ---------------------------------------------------
  free energy    TOTEN  =       -24.01289077 eV

  energy without entropy =      -24.01289077  energy(sigma->0) =      -24.01289077


--------------------------------------------------------------------------------------------------------




--------------------------------------- Iteration     10(   3)  ---------------------------------------


    POTLOK:  cpu time    0.1299: real time    0.1329
    SETDIJ:  cpu time    0.0018: real time    0.0018
    EDDIAG:  cpu time    0.0377: real time    0.0382
  RMM-DIIS:  cpu time    0.1249: real time    0.1279
    ORTHCH:  cpu time    0.0019: real time    0.0019
       DOS:  cpu time    0.0003: real time    0.0003
    CHARGE:  cpu time    0.0179: real time    0.0180
    MIXING:  cpu time    0.0047: real time    0.0049
    --------------------------------------------
      LOOP:  cpu time    0.3189: real time    0.3258

 eigenvalue-minimisations  :    44
 total energy-change (2. order) :-0.4136190E-06  (-0.1452232E-07)
 number of electron       8.0000001 magnetization 
 augmentation part        0.1861810 magnetization 

 Broyden mixing:
  rms(total) = 0.59158E-04    rms(broyden)= 0.59115E-04
  rms(prec ) = 0.70448E-04
  weight for this iteration     100.00

 eigenvalues of (default mixing * dielectric matrix)
  average eigenvalue GAMMA=   1.6472
  1.0377  2.2567

 Free energy of the ion-electron system (eV)
  ---------------------------------------------------
  alpha Z        PSCENC =         0.24118514
  Ewald energy   TEWEN  =       129.70411782
  -Hartree energ DENC   =      -285.37964531
  -exchange      EXHF   =         0.00000000
  -V(xc)+E(xc)   XCENC  =        24.77666959
  PAW double counting   =       471.76139039     -472.55168817
  entropy T*S    EENTRO =        -0.00000000
  eigenvalues    EBANDS =       -89.60667516
  atomic energy  EATOM  =       197.04175453
  Solvation  Ediel_sol  =         0.00000000
  ---------------------------------------------------
  free energy    TOTEN  =       -24.01289118 eV

  energy without entropy =      -24.01289118  energy(sigma->0) =      -24.01289118


--------------------------------------------------------------------------------------------------------




--------------------------------------- Iteration     10(   4)  ---------------------------------------


    POTLOK:  cpu time    0.1317: real time    0.1331
    SETDIJ:  cpu time    0.0017: real time    0.0017
    EDDIAG:  cpu time    0.0382: real time    0.0389
  RMM-DIIS:  cpu time    0.1248: real time    0.1266
    ORTHCH:  cpu time    0.0015: real time    0.0015
       DOS:  cpu time    0.0002: real time    0.0002
    --------------------------------------------
      LOOP:  cpu time    0.2980: real time    0.3019

 eigenvalue-minimisations  :    40
 total energy-change (2. order) :-0.7110415E-06  (-0.2967238E-08)
 number of electron       8.0000001 magnetization 
 augmentation part        0.1861810 magnetization 

 Free energy of the ion-electron system (eV)
  ---------------------------------------------------
  alpha Z        PSCENC =         0.24118514
  Ewald energy   TEWEN  =       129.70411782
  -Hartree energ DENC   =      -285.37877743
  -exchange      EXHF   =         0.00000000
  -V(xc)+E(xc)   XCENC  =        24.77662614
  PAW double counting   =       471.75421956     -472.54450163
  entropy T*S    EENTRO =        -0.00000000
  eigenvalues    EBANDS =       -89.60751602
  atomic energy  EATOM  =       197.04175453
  Solvation  Ediel_sol  =         0.00000000
  ---------------------------------------------------
  free energy    TOTEN  =       -24.01289189 eV

  energy without entropy =      -24.01289189  energy(sigma->0) =      -24.01289189


--------------------------------------------------------------------------------------------------------




 average (electrostatic) potential at core
  the test charge radii are     0.5201  0.6991
  (the norm of the test charge is              1.0000)
       1 -41.4149       2 -41.7000       3 -41.3742       4 -41.5746       5 -57.9442
 
 
 
 E-fermi :  -8.2404     XC(G=0):  -0.6924     alpha+bet : -0.2097


 k-point     1 :       0.2500    0.2500    0.2500
  band No.  band energies     occupation 
      1     -16.9082      2.00000
      2      -9.4076      2.00000
      3      -9.2855      2.00000
      4      -9.2021      2.00000
      5      -0.3118      0.00000
      6       0.5707      0.00000
      7       0.6804      0.00000
      8       0.7043      0.00000

 k-point     2 :      -0.2500    0.2500    0.2500
  band No.  band energies     occupation 
      1     -16.9083      2.00000
      2      -9.4078      2.00000
      3      -9.2857      2.00000
      4      -9.2023      2.00000
      5      -0.3060      0.00000
      6       0.5484      0.00000
      7       0.6568      0.00000
      8       0.7049      0.00000

 k-point     3 :       0.2500   -0.2500    0.2500
  band No.  band energies     occupation 
      1     -16.9083      2.00000
      2      -9.4077      2.00000
      3      -9.2856      2.00000
      4      -9.2022      2.00000
      5      -0.3139      0.00000
      6       0.5723      0.00000
      7       0.6773      0.00000
      8       0.7157      0.00000

 k-point     4 :      -0.2500   -0.2500    0.2500
  band No.  band energies     occupation 
      1     -16.9083      2.00000
      2      -9.4078      2.00000
      3      -9.2856      2.00000
      4      -9.2022      2.00000
      5      -0.3086      0.00000
      6       0.5557      0.00000
      7       0.6658      0.00000
      8       0.7103      0.00000


--------------------------------------------------------------------------------------------------------


 soft charge-density along one line, spin component           1
         0         1         2         3         4         5         6         7         8         9
 total charge-density along one line
 
 pseudopotential strength for first ion, spin component:           1
 -2.340  -4.032  -0.001  -0.001   0.001
 -4.032  -6.862  -0.003  -0.004   0.002
 -0.001  -0.003  -0.338   0.002  -0.001
 -0.001  -0.004   0.002  -0.336  -0.001
  0.001   0.002  -0.001  -0.001  -0.339
 total augmentation occupancy for first ion, spin component:           1
  3.512  -0.633   0.228   0.328  -0.129
 -0.633   0.128  -0.042  -0.061   0.024
  0.228  -0.042   0.021   0.018  -0.007
  0.328  -0.061   0.018   0.034  -0.010
 -0.129   0.024  -0.007  -0.010   0.013


------------------------ aborting loop because EDIFF is reached ----------------------------------------


    CHARGE:  cpu time    0.0170: real time    0.0173
    FORLOC:  cpu time    0.0143: real time    0.0143
    FORNL :  cpu time    0.0218: real time    0.0219
    STRESS:  cpu time    0.1705: real time    0.1715
    FORCOR:  cpu time    0.1367: real time    0.1379
    FORHAR:  cpu time    0.0469: real time    0.0472
    MIXING:  cpu time    0.0051: real time    0.0051
    OFIELD:  cpu time    0.0001: real time    0.0000

  FORCE on cell =-STRESS in cart. coord.  units (eV):
  Direction    XX          YY          ZZ          XY          YZ          ZX
  --------------------------------------------------------------------------------------
  Alpha Z     0.24119     0.24119     0.24119
  Ewald      41.84536    44.94980    42.90893    -0.19050    -0.57188     1.26040
  Hartree    92.47185    98.13207    94.77490     0.19851    -0.04390     0.51779
  E(xc)     -27.25088   -27.24797   -27.24678     0.00307     0.00156     0.00138
  Local    -192.46912  -202.33774  -196.42201    -0.21292     0.38790    -1.52341
  n-local   -16.03821   -15.92084   -15.96829     0.03156     0.02599    -0.01869
  augment     0.10810     0.11971     0.11480     0.00228     0.00240    -0.00239
  Kinetic   101.48963   101.33559   101.28563    -0.15503    -0.07222    -0.06817
  Fock        0.00000     0.00000     0.00000     0.00000     0.00000     0.00000
  -------------------------------------------------------------------------------------
  Total       0.39792    -0.72819    -0.31163    -0.32303    -0.27014     0.16692
  in kB       0.63473    -1.16156    -0.49710    -0.51528    -0.43091     0.26626
  external pressure =       -0.34 kB  Pullay stress =        0.00 kB

  kinetic pressure (ideal gas correction) =      0.01 kB
  total pressure  =     -0.33 kB
  Total+kin.     0.651      -1.154      -0.490      -0.515      -0.430       0.277

 VOLUME and BASIS-vectors are now :
 -----------------------------------------------------------------------------
  energy-cutoff  :      400.00
  volume of cell :     1004.42
      direct lattice vectors                 reciprocal lattice vectors
    10.219195456  0.000000000  0.000000000     0.097855062 -0.000271531 -0.002837301
     0.027142322  9.781636217  0.000000000     0.000000000  0.102232385  0.001022735
     0.291066724 -0.100522012 10.048157855     0.000000000  0.000000000  0.099520730

  length of vectors
    10.219195456  9.781673874 10.052875250     0.097896563  0.102237501  0.099520730


 FORCES acting on ions
    electron-ion (+dipol)            ewald-force                    non-local-force                 convergence-correction
 -----------------------------------------------------------------------------------------------
   -.161E+02 0.285E+02 0.410E+02   0.177E+02 -.313E+02 -.450E+02   -.165E+01 0.291E+01 0.419E+01   0.334E-04 0.312E-05 -.318E-04
   0.536E+02 -.650E+01 0.287E+01   -.602E+02 0.734E+01 -.321E+01   0.583E+01 -.706E+00 0.326E+00   0.115E-05 0.180E-04 -.155E-04
   -.236E+02 -.465E+02 0.139E+01   0.258E+02 0.509E+02 -.153E+01   -.239E+01 -.471E+01 0.144E+00   0.323E-04 0.216E-04 -.168E-04
   -.131E+02 0.248E+02 -.454E+02   0.145E+02 -.276E+02 0.505E+02   -.139E+01 0.263E+01 -.481E+01   0.312E-04 0.198E-05 0.866E-05
   -.166E+01 -.577E+00 0.520E+00   0.217E+01 0.724E+00 -.730E+00   0.524E+00 0.147E+00 -.280E+00   0.112E-03 0.665E-04 -.806E-04
 -----------------------------------------------------------------------------------------------
   -.925E+00 -.274E+00 0.427E+00   0.178E-14 0.355E-14 0.000E+00   0.925E+00 0.273E+00 -.426E+00   0.210E-03 0.111E-03 -.136E-03
 
 
 POSITION                                       TOTAL-FORCE (eV/Angst)
 -----------------------------------------------------------------------------------
      5.62187      3.92247      3.61232        -0.053250      0.132762      0.219232
      4.21957      4.65256      4.41841        -0.844842      0.127371     -0.015394
      5.78434      5.51432      4.44592        -0.214719     -0.378015      0.003635
      5.54837      4.01734      5.39987         0.072816     -0.176033      0.282821
      5.28203      4.52334      4.47609         1.040223      0.293426     -0.490077
 -----------------------------------------------------------------------------------
    total drift:                                0.000228     -0.000489      0.000216


--------------------------------------------------------------------------------------------------------



  FREE ENERGIE OF THE ION-ELECTRON SYSTEM (eV)
  ---------------------------------------------------
  free  energy   TOTEN  =       -24.01289189 eV

  energy  without entropy=      -24.01289189  energy(sigma->0) =      -24.01289189
 
 d Force =-0.4495025E-02[-0.504E-02,-0.395E-02]  d Energy =-0.4493592E-02-0.143E-05
 d Force =-0.1743691E+00[-0.175E+00,-0.174E+00]  d Ewald  =-0.1743685E+00-0.602E-06


--------------------------------------------------------------------------------------------------------


    POTLOK:  cpu time    0.1356: real time    0.1371


--------------------------------------------------------------------------------------------------------


           RANDOM_SEED =         172240186               30                0
   IONSTEP:  cpu time    0.0001: real time    0.0001

  ENERGY OF THE ELECTRON-ION-THERMOSTAT SYSTEM (eV)
  ---------------------------------------------------
% ion-electron   TOTEN  =       -24.012892  see above
  kinetic energy EKIN   =         0.007471
  kin. lattice  EKIN_LAT=         0.000000  (temperature   14.45 K)
  nose potential ES     =         0.000000
  nose kinetic   EPS    =         0.000000
  ---------------------------------------------------
  total energy   ETOTAL =       -24.005421 eV

  maximum distance moved by ions :      0.34E-03


 mean value of Nose-termostat <S>:     1.000 mean value of <T> :    23.808
 mean temperature <T/S>/<1/S>  :    23.808

    WAVPRE:  cpu time    0.0519: real time    0.0525
    FEWALD:  cpu time    0.0005: real time    0.0005
    ORTHCH:  cpu time    0.0094: real time    0.0095
 Prediction of Wavefunctions ALPHA= 2.114 BETA=-1.142
    POTLOK:  cpu time    0.1318: real time    0.1358
    EDDIAG:  cpu time    0.0381: real time    0.0388
     LOOP+:  cpu time    2.0920: real time    2.1224
    4ORBIT:  cpu time    0.0000: real time    0.0000

 total amount of memory used by VASP MPI-rank0    54677. kBytes
=======================================================================

   base      :      30000. kBytes
   nonl-proj :       2701. kBytes
   fftplans  :       7845. kBytes
   grid      :      12367. kBytes
   one-center:          6. kBytes
   wavefun   :       1758. kBytes
 
  
  
 General timing and accounting informations for this job:
 ========================================================
  
                  Total CPU time used (sec):       28.306
                            User time (sec):       26.235
                          System time (sec):        2.071
                         Elapsed time (sec):       29.047
  
                   Maximum memory used (kb):      175940.
                   Average memory used (kb):           0.
  
                          Minor page faults:       249626
                          Major page faults:            2
                 Voluntary context switches:           65
