 vasp.5.4.4.18Apr17-6-g9f103f2a35 (build Jul 09 2021 13:05:15) complex          
  
 executed on             LinuxIFC date 2021.11.04  19:02:31
 running on   16 total cores
 distrk:  each k-point on   16 cores,    1 groups
 distr:  one band on NCORES_PER_BAND=   4 cores,    4 groups


--------------------------------------------------------------------------------------------------------


 INCAR:
 POTCAR:    PAW_PBE H 15Jun2001                   
 POTCAR:    PAW_PBE C 08Apr2002                   
 POTCAR:    PAW_PBE H 15Jun2001                   
   VRHFIN =H: ultrasoft test                                                    
   LEXCH  = PE                                                                  
   EATOM  =    12.4884 eV,    0.9179 Ry                                         
                                                                                
   TITEL  = PAW_PBE H 15Jun2001                                                 
   LULTRA =        F    use ultrasoft PP ?                                      
   IUNSCR =        0    unscreen: 0-lin 1-nonlin 2-no                           
   RPACOR =    0.000    partial core radius                                     
   POMASS =    1.000; ZVAL   =    1.000    mass and valenz                      
   RCORE  =    1.100    outmost cutoff radius                                   
   RWIGS  =    0.700; RWIGS  =    0.370    wigner-seitz radius (au A)           
   ENMAX  =  250.000; ENMIN  =  200.000 eV                                      
   RCLOC  =    0.701    cutoff for local pot                                    
   LCOR   =        T    correct aug charges                                     
   LPAW   =        T    paw PP                                                  
   EAUG   =  400.000                                                            
   RMAX   =    1.123    core radius for proj-oper                               
   RAUG   =    1.200    factor for augmentation sphere                          
   RDEP   =    1.112    radius for radial grids                                 
   RDEPT  =    0.926    core radius for aug-charge                              
                                                                                
   Atomic configuration                                                         
    2 entries                                                                   
     n  l   j            E        occ.                                          
     1  0  0.50        -6.4927   1.0000                                         
     2  1  0.50        -3.4015   0.0000                                         
   Description                                                                  
     l       E           TYP  RCUT    TYP  RCUT                                 
     0     -6.4927494     23  1.100                                             
     0      6.8029130     23  1.100                                             
     1     -4.0817478     23  1.100                                             
  local pseudopotential read in
  atomic valenz-charges read in
  non local Contribution for L=           0  read in
    real space projection operators read in
  non local Contribution for L=           0  read in
    real space projection operators read in
  non local Contribution for L=           1  read in
    real space projection operators read in
    PAW grid and wavefunctions read in
 
   number of l-projection  operators is LMAX  =           3
   number of lm-projection operators is LMMAX =           5
 
 POTCAR:    PAW_PBE C 08Apr2002                   
   VRHFIN =C: s2p2                                                              
   LEXCH  = PE                                                                  
   EATOM  =   147.1560 eV,   10.8157 Ry                                         
                                                                                
   TITEL  = PAW_PBE C 08Apr2002                                                 
   LULTRA =        F    use ultrasoft PP ?                                      
   IUNSCR =        1    unscreen: 0-lin 1-nonlin 2-no                           
   RPACOR =    1.200    partial core radius                                     
   POMASS =   12.011; ZVAL   =    4.000    mass and valenz                      
   RCORE  =    1.500    outmost cutoff radius                                   
   RWIGS  =    1.630; RWIGS  =    0.863    wigner-seitz radius (au A)           
   ENMAX  =  400.000; ENMIN  =  300.000 eV                                      
   ICORE  =        2    local potential                                         
   LCOR   =        T    correct aug charges                                     
   LPAW   =        T    paw PP                                                  
   EAUG   =  644.873                                                            
   DEXC   =    0.000                                                            
   RMAX   =    1.529    core radius for proj-oper                               
   RAUG   =    1.300    factor for augmentation sphere                          
   RDEP   =    1.501    radius for radial grids                                 
   RDEPT  =    1.300    core radius for aug-charge                              
                                                                                
   Atomic configuration                                                         
    4 entries                                                                   
     n  l   j            E        occ.                                          
     1  0  0.50      -273.3789   2.0000                                         
     2  0  0.50       -13.7508   2.0000                                         
     2  1  0.50        -5.2854   2.0000                                         
     3  2  1.50        -5.4423   0.0000                                         
   Description                                                                  
     l       E           TYP  RCUT    TYP  RCUT                                 
     0    -13.7508458     23  1.200                                             
     0     -8.2022199     23  1.200                                             
     1     -5.2854383     23  1.500                                             
     1     34.0145650     23  1.500                                             
     2     -5.4423304      7  1.500                                             
  local pseudopotential read in
  partial core-charges read in
  partial kinetic energy density read in
  atomic valenz-charges read in
  non local Contribution for L=           0  read in
    real space projection operators read in
  non local Contribution for L=           0  read in
    real space projection operators read in
  non local Contribution for L=           1  read in
    real space projection operators read in
  non local Contribution for L=           1  read in
    real space projection operators read in
    PAW grid and wavefunctions read in
 
   number of l-projection  operators is LMAX  =           4
   number of lm-projection operators is LMMAX =           8
 
  PAW_PBE H 15Jun2001                   :
 energy of atom  1       EATOM=  -12.4884
 kinetic energy error for atom=    0.0098 (will be added to EATOM!!)
  PAW_PBE C 08Apr2002                   :
 energy of atom  2       EATOM= -147.1560
 kinetic energy error for atom=    0.0288 (will be added to EATOM!!)
 
 
 POSCAR:  H  C                                   
  positions in cartesian coordinates
  No initial velocities read in
 exchange correlation table for  LEXCH =        8
   RHO(1)=    0.500       N(1)  =     2000
   RHO(2)=  100.500       N(2)  =     4000
 


--------------------------------------------------------------------------------------------------------


 ion  position               nearest neighbor table
   1  0.538  0.406  0.361-   5 1.09
   2  0.395  0.480  0.439-   5 1.10
   3  0.552  0.565  0.443-   5 1.11
   4  0.528  0.416  0.539-   5 1.11
   5  0.503  0.467  0.445-   1 1.09   2 1.10   3 1.11   4 1.11
 

IMPORTANT INFORMATION: All symmetrisations will be switched off!
NOSYMM: (Re-)initialisation of all symmetry stuff for point group C_1.

 
 

Automatic generation of k-mesh.
 generate k-points for:    2    2    2
Space group operators:
 irot       det(A)        alpha          n_x          n_y          n_z        tau_x        tau_y        tau_z
    1     1.000000     0.000000     1.000000     0.000000     0.000000     0.000000     0.000000     0.000000
 
 Subroutine IBZKPT returns following result:
 ===========================================
 
 Found      4 irreducible k-points:
 
 Following reciprocal coordinates:
            Coordinates               Weight
  0.250000  0.250000  0.250000      2.000000
 -0.250000  0.250000  0.250000      2.000000
  0.250000 -0.250000  0.250000      2.000000
 -0.250000 -0.250000  0.250000      2.000000
 
 Following cartesian coordinates:
            Coordinates               Weight
  0.024847  0.024473  0.024059      2.000000
 -0.024847  0.025849  0.025528      2.000000
  0.024847 -0.025849  0.023854      2.000000
 -0.024847 -0.024473  0.025323      2.000000
 


--------------------------------------------------------------------------------------------------------




 Dimension of arrays:
   k-points           NKPTS =      4   k-points in BZ     NKDIM =      4   number of bands    NBANDS=      8
   number of dos      NEDOS =    301   number of ions     NIONS =      5
   non local maximal  LDIM  =      4   non local SUM 2l+1 LMDIM =      8
   total plane-waves  NPLWV = 343000
   max r-space proj   IRMAX =      1   max aug-charges    IRDMAX=   4198
   dimension x,y,z NGX =    70 NGY =   70 NGZ =   70
   dimension x,y,z NGXF=   140 NGYF=  140 NGZF=  140
   support grid    NGXF=   140 NGYF=  140 NGZF=  140
   ions per type =               4   1
   NGX,Y,Z   is equivalent  to a cutoff of  11.57, 11.71, 11.49 a.u.
   NGXF,Y,Z  is equivalent  to a cutoff of  23.13, 23.42, 22.98 a.u.

 SYSTEM =  unknown system                          
 POSCAR =   H  C                                   

 Startparameter for this run:
   NWRITE =      2    write-flag & timer
   PREC   = a         normal or accurate (medium, high low for compatibility)
   ISTART =      0    job   : 0-new  1-cont  2-samecut
   ICHARG =      2    charge: 1-file 2-atom 10-const
   ISPIN  =      1    spin polarized calculation?
   LNONCOLLINEAR =      F non collinear calculations
   LSORBIT =      F    spin-orbit coupling
   INIWAV =      1    electr: 0-lowe 1-rand  2-diag
   LASPH  =      F    aspherical Exc in radial PAW
   METAGGA=      F    non-selfconsistent MetaGGA calc.

 Electronic Relaxation 1
   ENCUT  =  400.0 eV  29.40 Ry    5.42 a.u.  16.41 16.21 16.52*2*pi/ulx,y,z
   ENINI  =  400.0     initial cutoff
   ENAUG  =  644.9 eV  augmentation charge cutoff
   NELM   =    120;   NELMIN=  4; NELMDL= -5     # of ELM steps 
   EDIFF  = 0.1E-05   stopping-criterion for ELM
   LREAL  =      F    real-space projection
   NLSPLINE    = F    spline interpolate recip. space projectors
   LCOMPAT=      F    compatible to vasp.4.4
   GGA_COMPAT  = T    GGA compatible to vasp.4.4-vasp.4.6
   LMAXPAW     = -100 max onsite density
   LMAXMIX     =    2 max onsite mixed and CHGCAR
   VOSKOWN=      0    Vosko Wilk Nusair interpolation
   ROPT   =    0.00000   0.00000
 Ionic relaxation
   EDIFFG = 0.1E-04   stopping-criterion for IOM
   NSW    =     10    number of steps for IOM
   NBLOCK =      1;   KBLOCK =     10    inner block; outer block 
   IBRION =      0    ionic relax: 0-MD 1-quasi-New 2-CG
   NFREE  =      0    steps in history (QN), initial steepest desc. (CG)
   ISIF   =      2    stress and relaxation
   IWAVPR =     12    prediction:  0-non 1-charg 2-wave 3-comb
   ISYM   =      0    0-nonsym 1-usesym 2-fastsym
   LCORR  =      T    Harris-Foulkes like correction to forces

   POTIM  = 0.5000    time-step for ionic-motion
   TEIN   =    0.0    initial temperature
   TEBEG  =    0.0;   TEEND  =   0.0 temperature during run
   SMASS  =  -3.00    Nose mass-parameter (am)
   estimated Nose-frequenzy (Omega)   =  0.10E-29 period in steps =****** mass=  -0.231E-26a.u.
   SCALEE = 1.0000    scale energy and forces
   NPACO  =    256;   APACO  = 16.0  distance and # of slots for P.C.
   PSTRESS=    0.0 pullay stress

  Mass of Ions in am
   POMASS =   1.00 12.01
  Ionic Valenz
   ZVAL   =   1.00  4.00
  Atomic Wigner-Seitz radii
   RWIGS  =  -1.00 -1.00
  virtual crystal weights 
   VCA    =   1.00  1.00
   NELECT =       8.0000    total number of electrons
   NUPDOWN=      -1.0000    fix difference up-down

 DOS related values:
   EMIN   =  10.00;   EMAX   =-10.00  energy-range for DOS
   EFERMI =   0.00
   ISMEAR =     0;   SIGMA  =   0.20  broadening in eV -4-tet -1-fermi 0-gaus

 Electronic relaxation 2 (details)
   IALGO  =     68    algorithm
   LDIAG  =      T    sub-space diagonalisation (order eigenvalues)
   LSUBROT=      F    optimize rotation matrix (better conditioning)
   TURBO    =      0    0=normal 1=particle mesh
   IRESTART =      0    0=no restart 2=restart with 2 vectors
   NREBOOT  =      0    no. of reboots
   NMIN     =      0    reboot dimension
   EREF     =   0.00    reference energy to select bands
   IMIX   =      4    mixing-type and parameters
     AMIX     =   0.40;   BMIX     =  1.00
     AMIX_MAG =   1.60;   BMIX_MAG =  1.00
     AMIN     =   0.10
     WC   =   100.;   INIMIX=   1;  MIXPRE=   1;  MAXMIX= -45

 Intra band minimization:
   WEIMIN = 0.0010     energy-eigenvalue tresh-hold
   EBREAK =  0.31E-07  absolut break condition
   DEPER  =   0.30     relativ break condition  

   TIME   =   0.40     timestep for ELM

  volume/ion in A,a.u.               =     202.45      1366.19
  Fermi-wavevector in a.u.,A,eV,Ry     =   0.326095  0.616230  1.446813  0.106338
  Thomas-Fermi vector in A             =   1.217659
 
 Write flags
   LWAVE        =      F    write WAVECAR
   LDOWNSAMPLE  =      F    k-point downsampling of WAVECAR
   LCHARG       =      F    write CHGCAR
   LVTOT        =      F    write LOCPOT, total local potential
   LVHAR        =      F    write LOCPOT, Hartree potential only
   LELF         =      F    write electronic localiz. function (ELF)
   LORBIT       =      0    0 simple, 1 ext, 2 COOP (PROOUT), +10 PAW based schemes


 Dipole corrections
   LMONO  =      F    monopole corrections only (constant potential shift)
   LDIPOL =      F    correct potential (dipole corrections)
   IDIPOL =      0    1-x, 2-y, 3-z, 4-all directions 
   EPSILON=  1.0000000 bulk dielectric constant

 Exchange correlation treatment:
   GGA     =    --    GGA type
   LEXCH   =     8    internal setting for exchange type
   VOSKOWN=      0    Vosko Wilk Nusair interpolation
   LHFCALC =     F    Hartree Fock is set to
   LHFONE  =     F    Hartree Fock one center treatment
   AEXX    =    0.0000 exact exchange contribution

 Linear response parameters
   LEPSILON=     F    determine dielectric tensor
   LRPA    =     F    only Hartree local field effects (RPA)
   LNABLA  =     F    use nabla operator in PAW spheres
   LVEL    =     F    velocity operator in full k-point grid
   LINTERFAST=   F  fast interpolation
   KINTER  =     0    interpolate to denser k-point grid
   CSHIFT  =0.1000    complex shift for real part using Kramers Kronig
   OMEGAMAX=  -1.0    maximum frequency
   DEG_THRESHOLD= 0.2000000E-02 threshold for treating states as degnerate
   RTIME   =   -0.100 relaxation time in fs
  (WPLASMAI=    0.000 imaginary part of plasma frequency in eV, 0.658/RTIME)
   DFIELD  = 0.0000000 0.0000000 0.0000000 field for delta impulse in time
 
 Orbital magnetization related:
   ORBITALMAG=     F  switch on orbital magnetization
   LCHIMAG   =     F  perturbation theory with respect to B field
   DQ        =  0.001000  dq finite difference perturbation B field
   LLRAUG    =     F  two centre corrections for induced B field



--------------------------------------------------------------------------------------------------------


 molecular dynamics for ions
   using a microcanonical ensemble
 charge density and potential will be updated during run
 non-spin polarized calculation
 RMM-DIIS sequential band-by-band and
  variant of blocked Davidson during initial phase
 perform sub-space diagonalisation
    before iterative eigenvector-optimisation
 modified Broyden-mixing scheme, WC =      100.0
 initial mixing is a Kerker type mixing with AMIX =  0.4000 and BMIX =      1.0000
 Hartree-type preconditioning will be used
 using additional bands            4
 reciprocal scheme for non local part
 use partial core corrections
 calculate Harris-corrections to forces 
   (improved forces if not selfconsistent)
 use gradient corrections 
 use of overlap-Matrix (Vanderbilt PP)
 Gauss-broadening in eV      SIGMA  =   0.20


--------------------------------------------------------------------------------------------------------


  energy-cutoff  :      400.00
  volume of cell :     1012.24
      direct lattice vectors                 reciprocal lattice vectors
    10.061474904  0.000000000  0.000000000     0.099389007 -0.002752730 -0.002937637
     0.275195672  9.936109097  0.000000000     0.000000000  0.100643017  0.000410448
     0.298127462 -0.041293291 10.125234633     0.000000000  0.000000000  0.098763143

  length of vectors
    10.061474904  9.939919348 10.129706881     0.099470508  0.100643854  0.098763143


 
 k-points in units of 2pi/SCALE and weight: read from INCAR                         
   0.02484725  0.02447257  0.02405899       0.250
  -0.02484725  0.02584894  0.02552781       0.250
   0.02484725 -0.02584894  0.02385376       0.250
  -0.02484725 -0.02447257  0.02532258       0.250
 
 k-points in reciprocal lattice and weights: read from INCAR                         
   0.25000000  0.25000000  0.25000000       0.250
  -0.25000000  0.25000000  0.25000000       0.250
   0.25000000 -0.25000000  0.25000000       0.250
  -0.25000000 -0.25000000  0.25000000       0.250
 
 position of ions in fractional coordinates (direct lattice) 
   0.53805097  0.40618355  0.36086147
   0.39485240  0.47995167  0.43873180
   0.55193018  0.56549692  0.44325502
   0.52814436  0.41645119  0.53920491
   0.50329406  0.46709972  0.44537909
 
 position of ions in cartesian coordinates  (Angst):
   5.63294898  4.02098294  3.65380701
   4.23567616  4.75073547  4.44226241
   5.84100047  5.60053567  4.48806110
   5.58926855  4.11563889  5.45957624
   5.32520409  4.62276258  4.50956780
 


--------------------------------------------------------------------------------------------------------


 k-point  1 :   0.2500 0.2500 0.2500  plane waves:   18383
 k-point  2 :  -0.2500 0.2500 0.2500  plane waves:   18409
 k-point  3 :   0.2500-0.2500 0.2500  plane waves:   18391
 k-point  4 :  -0.2500-0.2500 0.2500  plane waves:   18387

 maximum and minimum number of plane-waves per node :      4634     4553

 maximum number of plane-waves:     18409
 maximum index in each direction: 
   IXMAX=   16   IYMAX=   16   IZMAX=   16
   IXMIN=  -16   IYMIN=  -16   IZMIN=  -16


 parallel 3D FFT for wavefunctions:
    minimum data exchange during FFTs selected (reduces bandwidth)
 parallel 3D FFT for charge:
    minimum data exchange during FFTs selected (reduces bandwidth)


 total amount of memory used by VASP MPI-rank0    55448. kBytes
=======================================================================

   base      :      30000. kBytes
   nonl-proj :       2744. kBytes
   fftplans  :       8576. kBytes
   grid      :      13527. kBytes
   one-center:          6. kBytes
   wavefun   :        595. kBytes
 
     INWAV:  cpu time    0.0000: real time    0.0001
 Broyden mixing: mesh for mixing (old mesh)
   NGX = 33   NGY = 33   NGZ = 33
  (NGX  =140   NGY  =140   NGZ  =140)
  gives a total of  35937 points

 initial charge density was supplied:
 charge density of overlapping atoms calculated
 number of electron       8.0000000 magnetization 
 keeping initial charge density in first step


--------------------------------------------------------------------------------------------------------


 Maximum index for augmentation-charges          176 (set IRDMAX)


--------------------------------------------------------------------------------------------------------


 First call to EWALD:  gamma=   0.177
 Maximum number of real-space cells 3x 3x 3
 Maximum number of reciprocal cells 3x 3x 3

    FEWALD:  cpu time    0.0018: real time    0.0018


--------------------------------------- Iteration      1(   1)  ---------------------------------------


    POTLOK:  cpu time    0.1500: real time    0.1594
    SETDIJ:  cpu time    0.0018: real time    0.0020
     EDDAV:  cpu time    0.1971: real time    0.2016
       DOS:  cpu time    0.0016: real time    0.0016
    --------------------------------------------
      LOOP:  cpu time    0.3506: real time    0.3646

 eigenvalue-minimisations  :    96
 total energy-change (2. order) : 0.1418838E+02  (-0.2071474E+03)
 number of electron       8.0000000 magnetization 
 augmentation part        8.0000000 magnetization 

 Free energy of the ion-electron system (eV)
  ---------------------------------------------------
  alpha Z        PSCENC =         0.23932172
  Ewald energy   TEWEN  =       128.27511160
  -Hartree energ DENC   =      -243.98182759
  -exchange      EXHF   =         0.00000000
  -V(xc)+E(xc)   XCENC  =        21.98694117
  PAW double counting   =       117.05815612     -117.66307307
  entropy T*S    EENTRO =        -0.00000000
  eigenvalues    EBANDS =       -88.76800812
  atomic energy  EATOM  =       197.04175453
  Solvation  Ediel_sol  =         0.00000000
  ---------------------------------------------------
  free energy    TOTEN  =        14.18837637 eV

  energy without entropy =       14.18837637  energy(sigma->0) =       14.18837637


--------------------------------------------------------------------------------------------------------




--------------------------------------- Iteration      1(   2)  ---------------------------------------


     EDDAV:  cpu time    0.1453: real time    0.1480
       DOS:  cpu time    0.0005: real time    0.0005
    --------------------------------------------
      LOOP:  cpu time    0.1458: real time    0.1484

 eigenvalue-minimisations  :    64
 total energy-change (2. order) :-0.3705856E+02  (-0.3705856E+02)
 number of electron       8.0000000 magnetization 
 augmentation part        8.0000000 magnetization 

 Free energy of the ion-electron system (eV)
  ---------------------------------------------------
  alpha Z        PSCENC =         0.23932172
  Ewald energy   TEWEN  =       128.27511160
  -Hartree energ DENC   =      -243.98182759
  -exchange      EXHF   =         0.00000000
  -V(xc)+E(xc)   XCENC  =        21.98694117
  PAW double counting   =       117.05815612     -117.66307307
  entropy T*S    EENTRO =        -0.00000000
  eigenvalues    EBANDS =      -125.82656509
  atomic energy  EATOM  =       197.04175453
  Solvation  Ediel_sol  =         0.00000000
  ---------------------------------------------------
  free energy    TOTEN  =       -22.87018060 eV

  energy without entropy =      -22.87018060  energy(sigma->0) =      -22.87018060


--------------------------------------------------------------------------------------------------------




--------------------------------------- Iteration      1(   3)  ---------------------------------------


     EDDAV:  cpu time    0.1459: real time    0.1491
       DOS:  cpu time    0.0003: real time    0.0003
    --------------------------------------------
      LOOP:  cpu time    0.1461: real time    0.1493

 eigenvalue-minimisations  :    64
 total energy-change (2. order) :-0.4440704E+01  (-0.4440704E+01)
 number of electron       8.0000000 magnetization 
 augmentation part        8.0000000 magnetization 

 Free energy of the ion-electron system (eV)
  ---------------------------------------------------
  alpha Z        PSCENC =         0.23932172
  Ewald energy   TEWEN  =       128.27511160
  -Hartree energ DENC   =      -243.98182759
  -exchange      EXHF   =         0.00000000
  -V(xc)+E(xc)   XCENC  =        21.98694117
  PAW double counting   =       117.05815612     -117.66307307
  entropy T*S    EENTRO =        -0.00000000
  eigenvalues    EBANDS =      -130.26726926
  atomic energy  EATOM  =       197.04175453
  Solvation  Ediel_sol  =         0.00000000
  ---------------------------------------------------
  free energy    TOTEN  =       -27.31088477 eV

  energy without entropy =      -27.31088477  energy(sigma->0) =      -27.31088477


--------------------------------------------------------------------------------------------------------




--------------------------------------- Iteration      1(   4)  ---------------------------------------


     EDDAV:  cpu time    0.2445: real time    0.2489
       DOS:  cpu time    0.0002: real time    0.0002
    --------------------------------------------
      LOOP:  cpu time    0.2447: real time    0.2491

 eigenvalue-minimisations  :   128
 total energy-change (2. order) :-0.1801530E+00  (-0.1801530E+00)
 number of electron       8.0000000 magnetization 
 augmentation part        8.0000000 magnetization 

 Free energy of the ion-electron system (eV)
  ---------------------------------------------------
  alpha Z        PSCENC =         0.23932172
  Ewald energy   TEWEN  =       128.27511160
  -Hartree energ DENC   =      -243.98182759
  -exchange      EXHF   =         0.00000000
  -V(xc)+E(xc)   XCENC  =        21.98694117
  PAW double counting   =       117.05815612     -117.66307307
  entropy T*S    EENTRO =        -0.00000000
  eigenvalues    EBANDS =      -130.44742227
  atomic energy  EATOM  =       197.04175453
  Solvation  Ediel_sol  =         0.00000000
  ---------------------------------------------------
  free energy    TOTEN  =       -27.49103778 eV

  energy without entropy =      -27.49103778  energy(sigma->0) =      -27.49103778


--------------------------------------------------------------------------------------------------------




--------------------------------------- Iteration      1(   5)  ---------------------------------------


     EDDAV:  cpu time    0.1946: real time    0.1988
       DOS:  cpu time    0.0002: real time    0.0002
    CHARGE:  cpu time    0.0214: real time    0.0218
    MIXING:  cpu time    0.0042: real time    0.0043
    --------------------------------------------
      LOOP:  cpu time    0.2205: real time    0.2251

 eigenvalue-minimisations  :    96
 total energy-change (2. order) :-0.6027802E-04  (-0.6027706E-04)
 number of electron       8.0000002 magnetization 
 augmentation part        0.2237635 magnetization 

 Broyden mixing:
  rms(total) = 0.86413E+00    rms(broyden)= 0.86393E+00
  rms(prec ) = 0.12258E+01
  weight for this iteration     100.00

 Free energy of the ion-electron system (eV)
  ---------------------------------------------------
  alpha Z        PSCENC =         0.23932172
  Ewald energy   TEWEN  =       128.27511160
  -Hartree energ DENC   =      -243.98182759
  -exchange      EXHF   =         0.00000000
  -V(xc)+E(xc)   XCENC  =        21.98694117
  PAW double counting   =       117.05815612     -117.66307307
  entropy T*S    EENTRO =        -0.00000000
  eigenvalues    EBANDS =      -130.44748255
  atomic energy  EATOM  =       197.04175453
  Solvation  Ediel_sol  =         0.00000000
  ---------------------------------------------------
  free energy    TOTEN  =       -27.49109806 eV

  energy without entropy =      -27.49109806  energy(sigma->0) =      -27.49109806


--------------------------------------------------------------------------------------------------------




--------------------------------------- Iteration      1(   6)  ---------------------------------------


    POTLOK:  cpu time    0.1442: real time    0.1462
    SETDIJ:  cpu time    0.0018: real time    0.0019
    EDDIAG:  cpu time    0.0429: real time    0.0435
  RMM-DIIS:  cpu time    0.1639: real time    0.1751
    ORTHCH:  cpu time    0.0016: real time    0.0016
       DOS:  cpu time    0.0002: real time    0.0002
    CHARGE:  cpu time    0.0199: real time    0.0203
    MIXING:  cpu time    0.0045: real time    0.0046
    --------------------------------------------
      LOOP:  cpu time    0.3792: real time    0.3934

 eigenvalue-minimisations  :    64
 total energy-change (2. order) : 0.2844402E+01  (-0.5267123E+00)
 number of electron       8.0000001 magnetization 
 augmentation part        0.1972396 magnetization 

 Broyden mixing:
  rms(total) = 0.42611E+00    rms(broyden)= 0.42602E+00
  rms(prec ) = 0.55317E+00
  weight for this iteration     100.00

 eigenvalues of (default mixing * dielectric matrix)
  average eigenvalue GAMMA=   1.3025
  1.3025

 Free energy of the ion-electron system (eV)
  ---------------------------------------------------
  alpha Z        PSCENC =         0.23932172
  Ewald energy   TEWEN  =       128.27511160
  -Hartree energ DENC   =      -263.54402731
  -exchange      EXHF   =         0.00000000
  -V(xc)+E(xc)   XCENC  =        23.17439171
  PAW double counting   =       236.99277802     -237.77025959
  entropy T*S    EENTRO =        -0.00000000
  eigenvalues    EBANDS =      -109.05576661
  atomic energy  EATOM  =       197.04175453
  Solvation  Ediel_sol  =         0.00000000
  ---------------------------------------------------
  free energy    TOTEN  =       -24.64669594 eV

  energy without entropy =      -24.64669594  energy(sigma->0) =      -24.64669594


--------------------------------------------------------------------------------------------------------




--------------------------------------- Iteration      1(   7)  ---------------------------------------


    POTLOK:  cpu time    0.1430: real time    0.1449
    SETDIJ:  cpu time    0.0021: real time    0.0021
    EDDIAG:  cpu time    0.0383: real time    0.0387
  RMM-DIIS:  cpu time    0.1606: real time    0.1636
    ORTHCH:  cpu time    0.0015: real time    0.0015
       DOS:  cpu time    0.0002: real time    0.0002
    CHARGE:  cpu time    0.0182: real time    0.0183
    MIXING:  cpu time    0.0045: real time    0.0046
    --------------------------------------------
      LOOP:  cpu time    0.3684: real time    0.3739

 eigenvalue-minimisations  :    64
 total energy-change (2. order) : 0.4836879E+00  (-0.1176799E+00)
 number of electron       8.0000001 magnetization 
 augmentation part        0.1869081 magnetization 

 Broyden mixing:
  rms(total) = 0.22681E+00    rms(broyden)= 0.22676E+00
  rms(prec ) = 0.27456E+00
  weight for this iteration     100.00

 eigenvalues of (default mixing * dielectric matrix)
  average eigenvalue GAMMA=   1.8414
  1.4526  2.2302

 Free energy of the ion-electron system (eV)
  ---------------------------------------------------
  alpha Z        PSCENC =         0.23932172
  Ewald energy   TEWEN  =       128.27511160
  -Hartree energ DENC   =      -275.06385266
  -exchange      EXHF   =         0.00000000
  -V(xc)+E(xc)   XCENC  =        24.02216172
  PAW double counting   =       361.32322197     -362.13875482
  entropy T*S    EENTRO =        -0.00000000
  eigenvalues    EBANDS =       -97.86197209
  atomic energy  EATOM  =       197.04175453
  Solvation  Ediel_sol  =         0.00000000
  ---------------------------------------------------
  free energy    TOTEN  =       -24.16300803 eV

  energy without entropy =      -24.16300803  energy(sigma->0) =      -24.16300803


--------------------------------------------------------------------------------------------------------




--------------------------------------- Iteration      1(   8)  ---------------------------------------


    POTLOK:  cpu time    0.1436: real time    0.1457
    SETDIJ:  cpu time    0.0019: real time    0.0019
    EDDIAG:  cpu time    0.0380: real time    0.0385
  RMM-DIIS:  cpu time    0.1620: real time    0.1641
    ORTHCH:  cpu time    0.0015: real time    0.0015
       DOS:  cpu time    0.0002: real time    0.0002
    CHARGE:  cpu time    0.0180: real time    0.0183
    MIXING:  cpu time    0.0046: real time    0.0046
    --------------------------------------------
      LOOP:  cpu time    0.3697: real time    0.3747

 eigenvalue-minimisations  :    64
 total energy-change (2. order) : 0.1455711E+00  (-0.1621681E-01)
 number of electron       8.0000001 magnetization 
 augmentation part        0.1855416 magnetization 

 Broyden mixing:
  rms(total) = 0.22652E-01    rms(broyden)= 0.22631E-01
  rms(prec ) = 0.52566E-01
  weight for this iteration     100.00

 eigenvalues of (default mixing * dielectric matrix)
  average eigenvalue GAMMA=   1.5461
  2.2482  0.9870  1.4032

 Free energy of the ion-electron system (eV)
  ---------------------------------------------------
  alpha Z        PSCENC =         0.23932172
  Ewald energy   TEWEN  =       128.27511160
  -Hartree energ DENC   =      -280.45867089
  -exchange      EXHF   =         0.00000000
  -V(xc)+E(xc)   XCENC  =        24.55738561
  PAW double counting   =       468.60419069     -469.38791191
  entropy T*S    EENTRO =        -0.00000000
  eigenvalues    EBANDS =       -92.88861828
  atomic energy  EATOM  =       197.04175453
  Solvation  Ediel_sol  =         0.00000000
  ---------------------------------------------------
  free energy    TOTEN  =       -24.01743693 eV

  energy without entropy =      -24.01743693  energy(sigma->0) =      -24.01743693


--------------------------------------------------------------------------------------------------------




--------------------------------------- Iteration      1(   9)  ---------------------------------------


    POTLOK:  cpu time    0.1443: real time    0.1461
    SETDIJ:  cpu time    0.0018: real time    0.0018
    EDDIAG:  cpu time    0.0390: real time    0.0396
  RMM-DIIS:  cpu time    0.1651: real time    0.1678
    ORTHCH:  cpu time    0.0018: real time    0.0018
       DOS:  cpu time    0.0002: real time    0.0002
    CHARGE:  cpu time    0.0186: real time    0.0188
    MIXING:  cpu time    0.0050: real time    0.0050
    --------------------------------------------
      LOOP:  cpu time    0.3757: real time    0.3810

 eigenvalue-minimisations  :    64
 total energy-change (2. order) : 0.5614504E-02  (-0.1094178E-02)
 number of electron       8.0000001 magnetization 
 augmentation part        0.1849820 magnetization 

 Broyden mixing:
  rms(total) = 0.19466E-01    rms(broyden)= 0.19462E-01
  rms(prec ) = 0.40288E-01
  weight for this iteration     100.00

 eigenvalues of (default mixing * dielectric matrix)
  average eigenvalue GAMMA=   2.0937
  3.0805  2.9211  1.0024  1.3710

 Free energy of the ion-electron system (eV)
  ---------------------------------------------------
  alpha Z        PSCENC =         0.23932172
  Ewald energy   TEWEN  =       128.27511160
  -Hartree energ DENC   =      -281.70694588
  -exchange      EXHF   =         0.00000000
  -V(xc)+E(xc)   XCENC  =        24.62601574
  PAW double counting   =       471.71857007     -472.50498264
  entropy T*S    EENTRO =        -0.00000000
  eigenvalues    EBANDS =       -91.70066758
  atomic energy  EATOM  =       197.04175453
  Solvation  Ediel_sol  =         0.00000000
  ---------------------------------------------------
  free energy    TOTEN  =       -24.01182243 eV

  energy without entropy =      -24.01182243  energy(sigma->0) =      -24.01182243


--------------------------------------------------------------------------------------------------------




--------------------------------------- Iteration      1(  10)  ---------------------------------------


    POTLOK:  cpu time    0.1400: real time    0.1416
    SETDIJ:  cpu time    0.0018: real time    0.0019
    EDDIAG:  cpu time    0.0379: real time    0.0385
  RMM-DIIS:  cpu time    0.1626: real time    0.1660
    ORTHCH:  cpu time    0.0015: real time    0.0015
       DOS:  cpu time    0.0002: real time    0.0002
    CHARGE:  cpu time    0.0178: real time    0.0180
    MIXING:  cpu time    0.0049: real time    0.0049
    --------------------------------------------
      LOOP:  cpu time    0.3667: real time    0.3726

 eigenvalue-minimisations  :    64
 total energy-change (2. order) : 0.6252264E-02  (-0.2441884E-02)
 number of electron       8.0000001 magnetization 
 augmentation part        0.1839447 magnetization 

 Broyden mixing:
  rms(total) = 0.27609E-01    rms(broyden)= 0.27608E-01
  rms(prec ) = 0.35264E-01
  weight for this iteration     100.00

 eigenvalues of (default mixing * dielectric matrix)
  average eigenvalue GAMMA=   1.7845
  3.0761  2.4246  1.2206  1.2206  0.9804

 Free energy of the ion-electron system (eV)
  ---------------------------------------------------
  alpha Z        PSCENC =         0.23932172
  Ewald energy   TEWEN  =       128.27511160
  -Hartree energ DENC   =      -283.89683672
  -exchange      EXHF   =         0.00000000
  -V(xc)+E(xc)   XCENC  =        24.69619561
  PAW double counting   =       456.01379022     -456.80370974
  entropy T*S    EENTRO =        -0.00000000
  eigenvalues    EBANDS =       -89.57119738
  atomic energy  EATOM  =       197.04175453
  Solvation  Ediel_sol  =         0.00000000
  ---------------------------------------------------
  free energy    TOTEN  =       -24.00557016 eV

  energy without entropy =      -24.00557016  energy(sigma->0) =      -24.00557016


--------------------------------------------------------------------------------------------------------




--------------------------------------- Iteration      1(  11)  ---------------------------------------


    POTLOK:  cpu time    0.1366: real time    0.1393
    SETDIJ:  cpu time    0.0021: real time    0.0022
    EDDIAG:  cpu time    0.0376: real time    0.0381
  RMM-DIIS:  cpu time    0.1483: real time    0.1504
    ORTHCH:  cpu time    0.0019: real time    0.0019
       DOS:  cpu time    0.0002: real time    0.0002
    CHARGE:  cpu time    0.0190: real time    0.0194
    MIXING:  cpu time    0.0050: real time    0.0051
    --------------------------------------------
      LOOP:  cpu time    0.3507: real time    0.3564

 eigenvalue-minimisations  :    64
 total energy-change (2. order) :-0.7230205E-03  (-0.8054446E-03)
 number of electron       8.0000001 magnetization 
 augmentation part        0.1843074 magnetization 

 Broyden mixing:
  rms(total) = 0.82458E-02    rms(broyden)= 0.82427E-02
  rms(prec ) = 0.14098E-01
  weight for this iteration     100.00

 eigenvalues of (default mixing * dielectric matrix)
  average eigenvalue GAMMA=   2.2901
  4.9068  3.1007  2.4306  1.2798  1.0112  1.0112

 Free energy of the ion-electron system (eV)
  ---------------------------------------------------
  alpha Z        PSCENC =         0.23932172
  Ewald energy   TEWEN  =       128.27511160
  -Hartree energ DENC   =      -283.79021379
  -exchange      EXHF   =         0.00000000
  -V(xc)+E(xc)   XCENC  =        24.71029058
  PAW double counting   =       465.04618269     -465.82861200
  entropy T*S    EENTRO =        -0.00000000
  eigenvalues    EBANDS =       -89.70012851
  atomic energy  EATOM  =       197.04175453
  Solvation  Ediel_sol  =         0.00000000
  ---------------------------------------------------
  free energy    TOTEN  =       -24.00629318 eV

  energy without entropy =      -24.00629318  energy(sigma->0) =      -24.00629318


--------------------------------------------------------------------------------------------------------




--------------------------------------- Iteration      1(  12)  ---------------------------------------


    POTLOK:  cpu time    0.1299: real time    0.1319
    SETDIJ:  cpu time    0.0018: real time    0.0019
    EDDIAG:  cpu time    0.0375: real time    0.0380
  RMM-DIIS:  cpu time    0.1509: real time    0.1532
    ORTHCH:  cpu time    0.0019: real time    0.0019
       DOS:  cpu time    0.0002: real time    0.0002
    CHARGE:  cpu time    0.0177: real time    0.0180
    MIXING:  cpu time    0.0052: real time    0.0053
    --------------------------------------------
      LOOP:  cpu time    0.3452: real time    0.3502

 eigenvalue-minimisations  :    64
 total energy-change (2. order) :-0.9608809E-02  (-0.3559334E-03)
 number of electron       8.0000001 magnetization 
 augmentation part        0.1845274 magnetization 

 Broyden mixing:
  rms(total) = 0.12487E-01    rms(broyden)= 0.12486E-01
  rms(prec ) = 0.16335E-01
  weight for this iteration     100.00

 eigenvalues of (default mixing * dielectric matrix)
  average eigenvalue GAMMA=   2.0227
  4.8565  2.9540  2.4310  1.2359  1.0048  1.0048  0.6719

 Free energy of the ion-electron system (eV)
  ---------------------------------------------------
  alpha Z        PSCENC =         0.23932172
  Ewald energy   TEWEN  =       128.27511160
  -Hartree energ DENC   =      -283.99248417
  -exchange      EXHF   =         0.00000000
  -V(xc)+E(xc)   XCENC  =        24.70205931
  PAW double counting   =       462.07505951     -462.85635780
  entropy T*S    EENTRO =        -0.00000000
  eigenvalues    EBANDS =       -89.50036669
  atomic energy  EATOM  =       197.04175453
  Solvation  Ediel_sol  =         0.00000000
  ---------------------------------------------------
  free energy    TOTEN  =       -24.01590199 eV

  energy without entropy =      -24.01590199  energy(sigma->0) =      -24.01590199


--------------------------------------------------------------------------------------------------------




--------------------------------------- Iteration      1(  13)  ---------------------------------------


    POTLOK:  cpu time    0.1289: real time    0.1304
    SETDIJ:  cpu time    0.0019: real time    0.0025
    EDDIAG:  cpu time    0.0372: real time    0.0378
  RMM-DIIS:  cpu time    0.1542: real time    0.1565
    ORTHCH:  cpu time    0.0018: real time    0.0018
       DOS:  cpu time    0.0002: real time    0.0002
    CHARGE:  cpu time    0.0177: real time    0.0180
    MIXING:  cpu time    0.0057: real time    0.0057
    --------------------------------------------
      LOOP:  cpu time    0.3475: real time    0.3530

 eigenvalue-minimisations  :    64
 total energy-change (2. order) :-0.4643284E-03  (-0.9074524E-04)
 number of electron       8.0000001 magnetization 
 augmentation part        0.1842981 magnetization 

 Broyden mixing:
  rms(total) = 0.52650E-02    rms(broyden)= 0.52648E-02
  rms(prec ) = 0.71073E-02
  weight for this iteration     100.00

 eigenvalues of (default mixing * dielectric matrix)
  average eigenvalue GAMMA=   2.4675
  6.2833  4.2291  2.5431  2.3963  1.2082  1.2082  0.9994  0.8723

 Free energy of the ion-electron system (eV)
  ---------------------------------------------------
  alpha Z        PSCENC =         0.23932172
  Ewald energy   TEWEN  =       128.27511160
  -Hartree energ DENC   =      -284.17101780
  -exchange      EXHF   =         0.00000000
  -V(xc)+E(xc)   XCENC  =        24.70713296
  PAW double counting   =       461.88617342     -462.66978385
  entropy T*S    EENTRO =        -0.00000000
  eigenvalues    EBANDS =       -89.32505890
  atomic energy  EATOM  =       197.04175453
  Solvation  Ediel_sol  =         0.00000000
  ---------------------------------------------------
  free energy    TOTEN  =       -24.01636632 eV

  energy without entropy =      -24.01636632  energy(sigma->0) =      -24.01636632


--------------------------------------------------------------------------------------------------------




--------------------------------------- Iteration      1(  14)  ---------------------------------------


    POTLOK:  cpu time    0.1283: real time    0.1307
    SETDIJ:  cpu time    0.0018: real time    0.0019
    EDDIAG:  cpu time    0.0374: real time    0.0378
  RMM-DIIS:  cpu time    0.1503: real time    0.1522
    ORTHCH:  cpu time    0.0019: real time    0.0020
       DOS:  cpu time    0.0002: real time    0.0002
    CHARGE:  cpu time    0.0178: real time    0.0180
    MIXING:  cpu time    0.0054: real time    0.0055
    --------------------------------------------
      LOOP:  cpu time    0.3432: real time    0.3483

 eigenvalue-minimisations  :    64
 total energy-change (2. order) :-0.2878022E-02  (-0.1699549E-03)
 number of electron       8.0000001 magnetization 
 augmentation part        0.1841264 magnetization 

 Broyden mixing:
  rms(total) = 0.40329E-02    rms(broyden)= 0.40312E-02
  rms(prec ) = 0.52112E-02
  weight for this iteration     100.00

 eigenvalues of (default mixing * dielectric matrix)
  average eigenvalue GAMMA=   2.3423
  6.5419  4.1702  2.5491  2.4105  1.1758  1.1758  1.1441  0.9567  0.9567

 Free energy of the ion-electron system (eV)
  ---------------------------------------------------
  alpha Z        PSCENC =         0.23932172
  Ewald energy   TEWEN  =       128.27511160
  -Hartree energ DENC   =      -284.19981049
  -exchange      EXHF   =         0.00000000
  -V(xc)+E(xc)   XCENC  =        24.69802409
  PAW double counting   =       461.04813634     -461.83351583
  entropy T*S    EENTRO =        -0.00000000
  eigenvalues    EBANDS =       -89.28826630
  atomic energy  EATOM  =       197.04175453
  Solvation  Ediel_sol  =         0.00000000
  ---------------------------------------------------
  free energy    TOTEN  =       -24.01924434 eV

  energy without entropy =      -24.01924434  energy(sigma->0) =      -24.01924434


--------------------------------------------------------------------------------------------------------




--------------------------------------- Iteration      1(  15)  ---------------------------------------


    POTLOK:  cpu time    0.1269: real time    0.1291
    SETDIJ:  cpu time    0.0019: real time    0.0019
    EDDIAG:  cpu time    0.0376: real time    0.0380
  RMM-DIIS:  cpu time    0.1497: real time    0.1517
    ORTHCH:  cpu time    0.0017: real time    0.0017
       DOS:  cpu time    0.0002: real time    0.0002
    CHARGE:  cpu time    0.0176: real time    0.0181
    MIXING:  cpu time    0.0055: real time    0.0056
    --------------------------------------------
      LOOP:  cpu time    0.3411: real time    0.3464

 eigenvalue-minimisations  :    64
 total energy-change (2. order) :-0.1923629E-03  (-0.6906880E-05)
 number of electron       8.0000001 magnetization 
 augmentation part        0.1841136 magnetization 

 Broyden mixing:
  rms(total) = 0.18064E-02    rms(broyden)= 0.18063E-02
  rms(prec ) = 0.23540E-02
  weight for this iteration     100.00

 eigenvalues of (default mixing * dielectric matrix)
  average eigenvalue GAMMA=   2.5765
  7.6561  4.9475  3.0166  2.5867  2.1356  1.2651  1.2651  1.0121  0.9811  0.8986

 Free energy of the ion-electron system (eV)
  ---------------------------------------------------
  alpha Z        PSCENC =         0.23932172
  Ewald energy   TEWEN  =       128.27511160
  -Hartree energ DENC   =      -284.16161272
  -exchange      EXHF   =         0.00000000
  -V(xc)+E(xc)   XCENC  =        24.69705574
  PAW double counting   =       461.24531337     -462.02980295
  entropy T*S    EENTRO =        -0.00000000
  eigenvalues    EBANDS =       -89.32657799
  atomic energy  EATOM  =       197.04175453
  Solvation  Ediel_sol  =         0.00000000
  ---------------------------------------------------
  free energy    TOTEN  =       -24.01943670 eV

  energy without entropy =      -24.01943670  energy(sigma->0) =      -24.01943670


--------------------------------------------------------------------------------------------------------




--------------------------------------- Iteration      1(  16)  ---------------------------------------


    POTLOK:  cpu time    0.1285: real time    0.1300
    SETDIJ:  cpu time    0.0018: real time    0.0019
    EDDIAG:  cpu time    0.0372: real time    0.0377
  RMM-DIIS:  cpu time    0.1480: real time    0.1511
    ORTHCH:  cpu time    0.0019: real time    0.0019
       DOS:  cpu time    0.0002: real time    0.0002
    CHARGE:  cpu time    0.0177: real time    0.0181
    MIXING:  cpu time    0.0057: real time    0.0058
    --------------------------------------------
      LOOP:  cpu time    0.3412: real time    0.3467

 eigenvalue-minimisations  :    64
 total energy-change (2. order) :-0.2167934E-03  (-0.2048113E-04)
 number of electron       8.0000001 magnetization 
 augmentation part        0.1841980 magnetization 

 Broyden mixing:
  rms(total) = 0.15012E-02    rms(broyden)= 0.15007E-02
  rms(prec ) = 0.19856E-02
  weight for this iteration     100.00

 eigenvalues of (default mixing * dielectric matrix)
  average eigenvalue GAMMA=   2.5016
  7.8505  4.8911  3.5809  2.4151  2.3417  1.2491  1.2491  1.0304  1.0304  0.9238
  0.9549

 Free energy of the ion-electron system (eV)
  ---------------------------------------------------
  alpha Z        PSCENC =         0.23932172
  Ewald energy   TEWEN  =       128.27511160
  -Hartree energ DENC   =      -284.11973530
  -exchange      EXHF   =         0.00000000
  -V(xc)+E(xc)   XCENC  =        24.69610612
  PAW double counting   =       461.33255789     -462.11628338
  entropy T*S    EENTRO =        -0.00000000
  eigenvalues    EBANDS =       -89.36848668
  atomic energy  EATOM  =       197.04175453
  Solvation  Ediel_sol  =         0.00000000
  ---------------------------------------------------
  free energy    TOTEN  =       -24.01965350 eV

  energy without entropy =      -24.01965350  energy(sigma->0) =      -24.01965350


--------------------------------------------------------------------------------------------------------




--------------------------------------- Iteration      1(  17)  ---------------------------------------


    POTLOK:  cpu time    0.1302: real time    0.1319
    SETDIJ:  cpu time    0.0018: real time    0.0018
    EDDIAG:  cpu time    0.0378: real time    0.0384
  RMM-DIIS:  cpu time    0.1527: real time    0.1545
    ORTHCH:  cpu time    0.0015: real time    0.0016
       DOS:  cpu time    0.0002: real time    0.0002
    CHARGE:  cpu time    0.0181: real time    0.0183
    MIXING:  cpu time    0.0060: real time    0.0061
    --------------------------------------------
      LOOP:  cpu time    0.3484: real time    0.3529

 eigenvalue-minimisations  :    64
 total energy-change (2. order) :-0.1651935E-04  (-0.3676191E-05)
 number of electron       8.0000001 magnetization 
 augmentation part        0.1841603 magnetization 

 Broyden mixing:
  rms(total) = 0.23317E-03    rms(broyden)= 0.23312E-03
  rms(prec ) = 0.29777E-03
  weight for this iteration     100.00

 eigenvalues of (default mixing * dielectric matrix)
  average eigenvalue GAMMA=   2.5978
  8.4357  5.2391  3.9679  2.6608  2.4575  1.8936  1.3193  1.3193  1.0489  1.0093
  0.9305  0.8914

 Free energy of the ion-electron system (eV)
  ---------------------------------------------------
  alpha Z        PSCENC =         0.23932172
  Ewald energy   TEWEN  =       128.27511160
  -Hartree energ DENC   =      -284.16923791
  -exchange      EXHF   =         0.00000000
  -V(xc)+E(xc)   XCENC  =        24.69837115
  PAW double counting   =       461.33196341     -462.11615124
  entropy T*S    EENTRO =        -0.00000000
  eigenvalues    EBANDS =       -89.32080327
  atomic energy  EATOM  =       197.04175453
  Solvation  Ediel_sol  =         0.00000000
  ---------------------------------------------------
  free energy    TOTEN  =       -24.01967002 eV

  energy without entropy =      -24.01967002  energy(sigma->0) =      -24.01967002


--------------------------------------------------------------------------------------------------------




--------------------------------------- Iteration      1(  18)  ---------------------------------------


    POTLOK:  cpu time    0.1352: real time    0.1367
    SETDIJ:  cpu time    0.0019: real time    0.0019
    EDDIAG:  cpu time    0.0378: real time    0.0383
  RMM-DIIS:  cpu time    0.1498: real time    0.1517
    ORTHCH:  cpu time    0.0015: real time    0.0015
       DOS:  cpu time    0.0002: real time    0.0002
    CHARGE:  cpu time    0.0178: real time    0.0180
    MIXING:  cpu time    0.0064: real time    0.0065
    --------------------------------------------
      LOOP:  cpu time    0.3505: real time    0.3546

 eigenvalue-minimisations  :    60
 total energy-change (2. order) :-0.1533645E-04  (-0.3174971E-06)
 number of electron       8.0000001 magnetization 
 augmentation part        0.1841503 magnetization 

 Broyden mixing:
  rms(total) = 0.13639E-03    rms(broyden)= 0.13623E-03
  rms(prec ) = 0.19324E-03
  weight for this iteration     100.00

 eigenvalues of (default mixing * dielectric matrix)
  average eigenvalue GAMMA=   2.5566
  8.4993  5.3570  3.9141  2.9370  2.5043  2.1805  1.2930  1.2930  1.1976  1.1976
  0.8971  0.9825  0.9825

 Free energy of the ion-electron system (eV)
  ---------------------------------------------------
  alpha Z        PSCENC =         0.23932172
  Ewald energy   TEWEN  =       128.27511160
  -Hartree energ DENC   =      -284.16326424
  -exchange      EXHF   =         0.00000000
  -V(xc)+E(xc)   XCENC  =        24.69775595
  PAW double counting   =       461.22648100     -462.01069147
  entropy T*S    EENTRO =        -0.00000000
  eigenvalues    EBANDS =       -89.32615445
  atomic energy  EATOM  =       197.04175453
  Solvation  Ediel_sol  =         0.00000000
  ---------------------------------------------------
  free energy    TOTEN  =       -24.01968535 eV

  energy without entropy =      -24.01968535  energy(sigma->0) =      -24.01968535


--------------------------------------------------------------------------------------------------------




--------------------------------------- Iteration      1(  19)  ---------------------------------------


    POTLOK:  cpu time    0.1347: real time    0.1364
    SETDIJ:  cpu time    0.0018: real time    0.0019
    EDDIAG:  cpu time    0.0374: real time    0.0381
  RMM-DIIS:  cpu time    0.1230: real time    0.1245
    ORTHCH:  cpu time    0.0017: real time    0.0017
       DOS:  cpu time    0.0002: real time    0.0002
    CHARGE:  cpu time    0.0176: real time    0.0178
    MIXING:  cpu time    0.0064: real time    0.0065
    --------------------------------------------
      LOOP:  cpu time    0.3229: real time    0.3271

 eigenvalue-minimisations  :    48
 total energy-change (2. order) :-0.2235805E-05  (-0.1599452E-07)
 number of electron       8.0000001 magnetization 
 augmentation part        0.1841504 magnetization 

 Broyden mixing:
  rms(total) = 0.12308E-03    rms(broyden)= 0.12306E-03
  rms(prec ) = 0.16285E-03
  weight for this iteration     100.00

 eigenvalues of (default mixing * dielectric matrix)
  average eigenvalue GAMMA=   2.5797
  8.5410  5.6004  3.8280  3.8280  2.4582  2.4582  1.9050  1.3107  1.3107  1.0384
  0.9998  0.9998  0.9191  0.9191

 Free energy of the ion-electron system (eV)
  ---------------------------------------------------
  alpha Z        PSCENC =         0.23932172
  Ewald energy   TEWEN  =       128.27511160
  -Hartree energ DENC   =      -284.16027984
  -exchange      EXHF   =         0.00000000
  -V(xc)+E(xc)   XCENC  =        24.69755730
  PAW double counting   =       461.21448834     -461.99867752
  entropy T*S    EENTRO =        -0.00000000
  eigenvalues    EBANDS =       -89.32896372
  atomic energy  EATOM  =       197.04175453
  Solvation  Ediel_sol  =         0.00000000
  ---------------------------------------------------
  free energy    TOTEN  =       -24.01968759 eV

  energy without entropy =      -24.01968759  energy(sigma->0) =      -24.01968759


--------------------------------------------------------------------------------------------------------




--------------------------------------- Iteration      1(  20)  ---------------------------------------


    POTLOK:  cpu time    0.1355: real time    0.1380
    SETDIJ:  cpu time    0.0019: real time    0.0019
    EDDIAG:  cpu time    0.0378: real time    0.0383
  RMM-DIIS:  cpu time    0.1216: real time    0.1238
    ORTHCH:  cpu time    0.0014: real time    0.0014
       DOS:  cpu time    0.0002: real time    0.0002
    CHARGE:  cpu time    0.0179: real time    0.0182
    MIXING:  cpu time    0.0064: real time    0.0064
    --------------------------------------------
      LOOP:  cpu time    0.3227: real time    0.3282

 eigenvalue-minimisations  :    48
 total energy-change (2. order) :-0.1665900E-05  (-0.2742370E-07)
 number of electron       8.0000001 magnetization 
 augmentation part        0.1841534 magnetization 

 Broyden mixing:
  rms(total) = 0.28879E-04    rms(broyden)= 0.28873E-04
  rms(prec ) = 0.35326E-04
  weight for this iteration     100.00

 eigenvalues of (default mixing * dielectric matrix)
  average eigenvalue GAMMA=   2.5194
  8.5509  5.6006  4.0129  3.6865  2.4711  2.4711  1.7263  1.7263  1.2804  1.2804
  1.0775  1.0775  0.8917  0.9690  0.9690

 Free energy of the ion-electron system (eV)
  ---------------------------------------------------
  alpha Z        PSCENC =         0.23932172
  Ewald energy   TEWEN  =       128.27511160
  -Hartree energ DENC   =      -284.15646389
  -exchange      EXHF   =         0.00000000
  -V(xc)+E(xc)   XCENC  =        24.69737397
  PAW double counting   =       461.22055272     -462.00469617
  entropy T*S    EENTRO =        -0.00000000
  eigenvalues    EBANDS =       -89.33264374
  atomic energy  EATOM  =       197.04175453
  Solvation  Ediel_sol  =         0.00000000
  ---------------------------------------------------
  free energy    TOTEN  =       -24.01968926 eV

  energy without entropy =      -24.01968926  energy(sigma->0) =      -24.01968926


--------------------------------------------------------------------------------------------------------




--------------------------------------- Iteration      1(  21)  ---------------------------------------


    POTLOK:  cpu time    0.1367: real time    0.1382
    SETDIJ:  cpu time    0.0018: real time    0.0018
    EDDIAG:  cpu time    0.0373: real time    0.0377
  RMM-DIIS:  cpu time    0.1191: real time    0.1206
    ORTHCH:  cpu time    0.0017: real time    0.0017
       DOS:  cpu time    0.0002: real time    0.0002
    --------------------------------------------
      LOOP:  cpu time    0.2967: real time    0.3002

 eigenvalue-minimisations  :    44
 total energy-change (2. order) :-0.2865704E-06  (-0.3780654E-08)
 number of electron       8.0000001 magnetization 
 augmentation part        0.1841534 magnetization 

 Free energy of the ion-electron system (eV)
  ---------------------------------------------------
  alpha Z        PSCENC =         0.23932172
  Ewald energy   TEWEN  =       128.27511160
  -Hartree energ DENC   =      -284.15759435
  -exchange      EXHF   =         0.00000000
  -V(xc)+E(xc)   XCENC  =        24.69746293
  PAW double counting   =       461.22793927     -462.01208423
  entropy T*S    EENTRO =        -0.00000000
  eigenvalues    EBANDS =       -89.33160100
  atomic energy  EATOM  =       197.04175453
  Solvation  Ediel_sol  =         0.00000000
  ---------------------------------------------------
  free energy    TOTEN  =       -24.01968954 eV

  energy without entropy =      -24.01968954  energy(sigma->0) =      -24.01968954


--------------------------------------------------------------------------------------------------------




 average (electrostatic) potential at core
  the test charge radii are     0.5201  0.6991
  (the norm of the test charge is              1.0000)
       1 -41.5467       2 -41.4818       3 -41.4373       4 -41.4118       5 -57.9875
 
 
 
 E-fermi :  -8.2181     XC(G=0):  -0.6925     alpha+bet : -0.2081


 k-point     1 :       0.2500    0.2500    0.2500
  band No.  band energies     occupation 
      1     -16.8535      2.00000
      2      -9.4240      2.00000
      3      -9.2317      2.00000
      4      -9.1565      2.00000
      5      -0.3260      0.00000
      6       0.5670      0.00000
      7       0.6822      0.00000
      8       0.7046      0.00000

 k-point     2 :      -0.2500    0.2500    0.2500
  band No.  band energies     occupation 
      1     -16.8536      2.00000
      2      -9.4240      2.00000
      3      -9.2317      2.00000
      4      -9.1567      2.00000
      5      -0.3157      0.00000
      6       0.5455      0.00000
      7       0.6440      0.00000
      8       0.6845      0.00000

 k-point     3 :       0.2500   -0.2500    0.2500
  band No.  band energies     occupation 
      1     -16.8536      2.00000
      2      -9.4240      2.00000
      3      -9.2317      2.00000
      4      -9.1566      2.00000
      5      -0.3214      0.00000
      6       0.5575      0.00000
      7       0.6645      0.00000
      8       0.6943      0.00000

 k-point     4 :      -0.2500   -0.2500    0.2500
  band No.  band energies     occupation 
      1     -16.8535      2.00000
      2      -9.4240      2.00000
      3      -9.2317      2.00000
      4      -9.1566      2.00000
      5      -0.3212      0.00000
      6       0.5550      0.00000
      7       0.6615      0.00000
      8       0.7008      0.00000


--------------------------------------------------------------------------------------------------------


 soft charge-density along one line, spin component           1
         0         1         2         3         4         5         6         7         8         9
 total charge-density along one line
 
 pseudopotential strength for first ion, spin component:           1
 -2.341  -4.035  -0.001  -0.001   0.001
 -4.035  -6.866  -0.003  -0.004   0.002
 -0.001  -0.003  -0.337   0.002  -0.001
 -0.001  -0.004   0.002  -0.335  -0.001
  0.001   0.002  -0.001  -0.001  -0.338
 total augmentation occupancy for first ion, spin component:           1
  3.570  -0.642   0.242   0.344  -0.123
 -0.642   0.130  -0.045  -0.063   0.023
  0.242  -0.045   0.023   0.019  -0.007
  0.344  -0.063   0.019   0.037  -0.010
 -0.123   0.023  -0.007  -0.010   0.013


------------------------ aborting loop because EDIFF is reached ----------------------------------------


    CHARGE:  cpu time    0.0178: real time    0.0181
    FORLOC:  cpu time    0.0135: real time    0.0136
    FORNL :  cpu time    0.0198: real time    0.0199
    STRESS:  cpu time    0.1457: real time    0.1474
    FORCOR:  cpu time    0.1368: real time    0.1386
    FORHAR:  cpu time    0.0433: real time    0.0437
    MIXING:  cpu time    0.0065: real time    0.0065
    OFIELD:  cpu time    0.0000: real time    0.0000

  FORCE on cell =-STRESS in cart. coord.  units (eV):
  Direction    XX          YY          ZZ          XY          YZ          ZX
  --------------------------------------------------------------------------------------
  Alpha Z     0.23932     0.23932     0.23932
  Ewald      42.83331    42.50777    42.93398     2.18193     1.28632     2.25607
  Hartree    94.58178    95.58723    93.98872     0.97010     0.12996     1.01405
  E(xc)     -27.16171   -27.17024   -27.15604     0.01111     0.00379     0.01192
  Local    -196.16702  -197.21081  -195.50186    -2.89733    -1.04223    -3.01827
  n-local   -15.80228   -15.78928   -15.79722     0.01801    -0.02999     0.02055
  augment     0.11740     0.12016     0.11612    -0.00141    -0.00333    -0.00132
  Kinetic   100.82202   101.20265   100.53608    -0.55324    -0.16095    -0.59438
  Fock        0.00000     0.00000     0.00000     0.00000     0.00000     0.00000
  -------------------------------------------------------------------------------------
  Total      -0.53717    -0.51319    -0.64089    -0.27083     0.18356    -0.31137
  in kB      -0.85024    -0.81229    -1.01441    -0.42867     0.29055    -0.49284
  external pressure =       -0.89 kB  Pullay stress =        0.00 kB

  kinetic pressure (ideal gas correction) =      0.00 kB
  total pressure  =     -0.89 kB
  Total+kin.    -0.850      -0.812      -1.014      -0.429       0.291      -0.493

 VOLUME and BASIS-vectors are now :
 -----------------------------------------------------------------------------
  energy-cutoff  :      400.00
  volume of cell :     1012.24
      direct lattice vectors                 reciprocal lattice vectors
    10.061474904  0.000000000  0.000000000     0.099389007 -0.002752730 -0.002937637
     0.275195672  9.936109097  0.000000000     0.000000000  0.100643017  0.000410448
     0.298127462 -0.041293291 10.125234633     0.000000000  0.000000000  0.098763143

  length of vectors
    10.061474904  9.939919348 10.129706881     0.099470508  0.100643854  0.098763143


 FORCES acting on ions
    electron-ion (+dipol)            ewald-force                    non-local-force                 convergence-correction
 -----------------------------------------------------------------------------------------------
   -.150E+02 0.293E+02 0.416E+02   0.168E+02 -.325E+02 -.462E+02   -.154E+01 0.308E+01 0.440E+01   -.849E-07 0.431E-05 -.415E-05
   0.522E+02 -.619E+01 0.317E+01   -.576E+02 0.693E+01 -.340E+01   0.542E+01 -.607E+00 0.362E+00   -.923E-07 -.870E-07 -.240E-06
   -.244E+02 -.463E+02 0.100E+01   0.267E+02 0.508E+02 -.116E+01   -.253E+01 -.474E+01 0.854E-01   -.151E-05 -.571E-05 -.176E-05
   -.124E+02 0.239E+02 -.448E+02   0.136E+02 -.262E+02 0.490E+02   -.128E+01 0.241E+01 -.457E+01   -.154E-05 0.287E-05 0.329E-05
   -.382E+00 -.824E+00 -.144E+01   0.443E+00 0.952E+00 0.171E+01   0.116E-02 0.198E-01 0.129E+00   -.709E-05 -.259E-05 -.801E-05
 -----------------------------------------------------------------------------------------------
   -.733E-01 -.167E+00 -.407E+00   0.183E-14 -.711E-14 0.000E+00   0.729E-01 0.167E+00 0.407E+00   -.103E-04 -.120E-05 -.109E-04
 
 
 POSITION                                       TOTAL-FORCE (eV/Angst)
 -----------------------------------------------------------------------------------
      5.63295      4.02098      3.65381         0.221040     -0.143695     -0.100043
      4.23568      4.75074      4.44226         0.070626      0.130348      0.137627
      5.84100      5.60054      4.48806        -0.221718     -0.205297     -0.075849
      5.58927      4.11564      5.45958        -0.132365      0.071114     -0.360379
      5.32520      4.62276      4.50957         0.062016      0.147301      0.398703
 -----------------------------------------------------------------------------------
    total drift:                               -0.000400     -0.000229      0.000059


--------------------------------------------------------------------------------------------------------



  FREE ENERGIE OF THE ION-ELECTRON SYSTEM (eV)
  ---------------------------------------------------
  free  energy   TOTEN  =       -24.01968954 eV

  energy  without entropy=      -24.01968954  energy(sigma->0) =      -24.01968954
 


--------------------------------------------------------------------------------------------------------


    POTLOK:  cpu time    0.1397: real time    0.1420


--------------------------------------------------------------------------------------------------------


           RANDOM_SEED =         172231813                0                0
           RANDOM_SEED =         172231813               30                0
   IONSTEP:  cpu time    0.0025: real time    0.0027

  ENERGY OF THE ELECTRON-ION-THERMOSTAT SYSTEM (eV)
  ---------------------------------------------------
% ion-electron   TOTEN  =       -24.019690  see above
  kinetic energy EKIN   =         0.000116
  kin. lattice  EKIN_LAT=         0.000000  (temperature    0.22 K)
  nose potential ES     =         0.000000
  nose kinetic   EPS    =         0.000000
  ---------------------------------------------------
  total energy   ETOTAL =       -24.019574 eV

  maximum distance moved by ions :      0.92E-04

    WAVPRE:  cpu time    0.0422: real time    0.0429
    FEWALD:  cpu time    0.0003: real time    0.0003
    ORTHCH:  cpu time    0.0079: real time    0.0079
     LOOP+:  cpu time    7.2579: real time    7.3845


--------------------------------------- Iteration      2(   1)  ---------------------------------------


    POTLOK:  cpu time    0.1394: real time    0.1407
    SETDIJ:  cpu time    0.0018: real time    0.0018
     EDDAV:  cpu time    0.1676: real time    0.1698
       DOS:  cpu time    0.0002: real time    0.0002
    CHARGE:  cpu time    0.0172: real time    0.0174
    MIXING:  cpu time    0.0058: real time    0.0058
    --------------------------------------------
      LOOP:  cpu time    0.3321: real time    0.3359

 eigenvalue-minimisations  :    80
 total energy-change (2. order) :-0.9004647E-03  (-0.9388290E-04)
 number of electron       8.0000001 magnetization 
 augmentation part        0.1842556 magnetization 

 Broyden mixing:
  rms(total) = 0.12917E-02    rms(broyden)= 0.12908E-02
  rms(prec ) = 0.15803E-02
  weight for this iteration     100.00

 Free energy of the ion-electron system (eV)
  ---------------------------------------------------
  alpha Z        PSCENC =         0.23932172
  Ewald energy   TEWEN  =       128.34223496
  -Hartree energ DENC   =      -284.19772499
  -exchange      EXHF   =         0.00000000
  -V(xc)+E(xc)   XCENC  =        24.69951075
  PAW double counting   =       461.23740266     -462.02154433
  entropy T*S    EENTRO =        -0.00000000
  eigenvalues    EBANDS =       -89.36154503
  atomic energy  EATOM  =       197.04175453
  Solvation  Ediel_sol  =         0.00000000
  ---------------------------------------------------
  free energy    TOTEN  =       -24.02058972 eV

  energy without entropy =      -24.02058972  energy(sigma->0) =      -24.02058972


--------------------------------------------------------------------------------------------------------




--------------------------------------- Iteration      2(   2)  ---------------------------------------


    POTLOK:  cpu time    0.1427: real time    0.1456
    SETDIJ:  cpu time    0.0019: real time    0.0019
    EDDIAG:  cpu time    0.0373: real time    0.0378
  RMM-DIIS:  cpu time    0.1510: real time    0.1538
    ORTHCH:  cpu time    0.0018: real time    0.0018
       DOS:  cpu time    0.0002: real time    0.0002
    CHARGE:  cpu time    0.0179: real time    0.0181
    MIXING:  cpu time    0.0046: real time    0.0047
    --------------------------------------------
      LOOP:  cpu time    0.3574: real time    0.3639

 eigenvalue-minimisations  :    64
 total energy-change (2. order) : 0.1408981E-05  (-0.2446989E-05)
 number of electron       8.0000001 magnetization 
 augmentation part        0.1842450 magnetization 

 Broyden mixing:
  rms(total) = 0.76856E-03    rms(broyden)= 0.76839E-03
  rms(prec ) = 0.90579E-03
  weight for this iteration     100.00

 eigenvalues of (default mixing * dielectric matrix)
  average eigenvalue GAMMA=   1.8462
  1.8462

 Free energy of the ion-electron system (eV)
  ---------------------------------------------------
  alpha Z        PSCENC =         0.23932172
  Ewald energy   TEWEN  =       128.34223496
  -Hartree energ DENC   =      -284.21174297
  -exchange      EXHF   =         0.00000000
  -V(xc)+E(xc)   XCENC  =        24.70026131
  PAW double counting   =       461.40915175     -462.19345273
  entropy T*S    EENTRO =        -0.00000000
  eigenvalues    EBANDS =       -89.34811689
  atomic energy  EATOM  =       197.04175453
  Solvation  Ediel_sol  =         0.00000000
  ---------------------------------------------------
  free energy    TOTEN  =       -24.02058831 eV

  energy without entropy =      -24.02058831  energy(sigma->0) =      -24.02058831


--------------------------------------------------------------------------------------------------------




--------------------------------------- Iteration      2(   3)  ---------------------------------------


    POTLOK:  cpu time    0.1424: real time    0.1439
    SETDIJ:  cpu time    0.0019: real time    0.0019
    EDDIAG:  cpu time    0.0372: real time    0.0376
  RMM-DIIS:  cpu time    0.1638: real time    0.1669
    ORTHCH:  cpu time    0.0018: real time    0.0018
       DOS:  cpu time    0.0002: real time    0.0002
    CHARGE:  cpu time    0.0173: real time    0.0175
    MIXING:  cpu time    0.0051: real time    0.0052
    --------------------------------------------
      LOOP:  cpu time    0.3697: real time    0.3749

 eigenvalue-minimisations  :    64
 total energy-change (2. order) :-0.1162110E-07  (-0.5797111E-06)
 number of electron       8.0000001 magnetization 
 augmentation part        0.1842303 magnetization 

 Broyden mixing:
  rms(total) = 0.24028E-03    rms(broyden)= 0.24016E-03
  rms(prec ) = 0.28881E-03
  weight for this iteration     100.00

 eigenvalues of (default mixing * dielectric matrix)
  average eigenvalue GAMMA=   1.5635
  1.2497  1.8773

 Free energy of the ion-electron system (eV)
  ---------------------------------------------------
  alpha Z        PSCENC =         0.23932172
  Ewald energy   TEWEN  =       128.34223496
  -Hartree energ DENC   =      -284.22076572
  -exchange      EXHF   =         0.00000000
  -V(xc)+E(xc)   XCENC  =        24.70074968
  PAW double counting   =       461.56374635     -462.34816436
  entropy T*S    EENTRO =        -0.00000000
  eigenvalues    EBANDS =       -89.33946548
  atomic energy  EATOM  =       197.04175453
  Solvation  Ediel_sol  =         0.00000000
  ---------------------------------------------------
  free energy    TOTEN  =       -24.02058832 eV

  energy without entropy =      -24.02058832  energy(sigma->0) =      -24.02058832


--------------------------------------------------------------------------------------------------------




--------------------------------------- Iteration      2(   4)  ---------------------------------------


    POTLOK:  cpu time    0.1451: real time    0.1469
    SETDIJ:  cpu time    0.0018: real time    0.0019
    EDDIAG:  cpu time    0.0379: real time    0.0384
  RMM-DIIS:  cpu time    0.1257: real time    0.1271
    ORTHCH:  cpu time    0.0017: real time    0.0017
       DOS:  cpu time    0.0002: real time    0.0002
    --------------------------------------------
      LOOP:  cpu time    0.3124: real time    0.3160

 eigenvalue-minimisations  :    48
 total energy-change (2. order) : 0.5585810E-07  (-0.1924011E-07)
 number of electron       8.0000001 magnetization 
 augmentation part        0.1842303 magnetization 

 Free energy of the ion-electron system (eV)
  ---------------------------------------------------
  alpha Z        PSCENC =         0.23932172
  Ewald energy   TEWEN  =       128.34223496
  -Hartree energ DENC   =      -284.21786222
  -exchange      EXHF   =         0.00000000
  -V(xc)+E(xc)   XCENC  =        24.70062684
  PAW double counting   =       461.58561814     -462.36999878
  entropy T*S    EENTRO =        -0.00000000
  eigenvalues    EBANDS =       -89.34228347
  atomic energy  EATOM  =       197.04175453
  Solvation  Ediel_sol  =         0.00000000
  ---------------------------------------------------
  free energy    TOTEN  =       -24.02058827 eV

  energy without entropy =      -24.02058827  energy(sigma->0) =      -24.02058827


--------------------------------------------------------------------------------------------------------




 average (electrostatic) potential at core
  the test charge radii are     0.5201  0.6991
  (the norm of the test charge is              1.0000)
       1 -41.5415       2 -41.4824       3 -41.4420       4 -41.4182       5 -57.9854
 
 
 
 E-fermi :  -8.2212     XC(G=0):  -0.7004     alpha+bet : -0.2081


 k-point     1 :       0.2500    0.2500    0.2500
  band No.  band energies     occupation 
      1     -16.8555      2.00000
      2      -9.4219      2.00000
      3      -9.2330      2.00000
      4      -9.1606      2.00000
      5      -0.3276      0.00000
      6       0.5609      0.00000
      7       0.6774      0.00000
      8       0.7002      0.00000

 k-point     2 :      -0.2500    0.2500    0.2500
  band No.  band energies     occupation 
      1     -16.8556      2.00000
      2      -9.4220      2.00000
      3      -9.2331      2.00000
      4      -9.1607      2.00000
      5      -0.3171      0.00000
      6       0.5377      0.00000
      7       0.6414      0.00000
      8       0.6792      0.00000

 k-point     3 :       0.2500   -0.2500    0.2500
  band No.  band energies     occupation 
      1     -16.8555      2.00000
      2      -9.4219      2.00000
      3      -9.2330      2.00000
      4      -9.1606      2.00000
      5      -0.3228      0.00000
      6       0.5490      0.00000
      7       0.6622      0.00000
      8       0.6896      0.00000

 k-point     4 :      -0.2500   -0.2500    0.2500
  band No.  band energies     occupation 
      1     -16.8555      2.00000
      2      -9.4219      2.00000
      3      -9.2331      2.00000
      4      -9.1606      2.00000
      5      -0.3227      0.00000
      6       0.5490      0.00000
      7       0.6577      0.00000
      8       0.6956      0.00000


--------------------------------------------------------------------------------------------------------


 soft charge-density along one line, spin component           1
         0         1         2         3         4         5         6         7         8         9
 total charge-density along one line
 
 pseudopotential strength for first ion, spin component:           1
 -2.341  -4.035  -0.001  -0.001   0.001
 -4.035  -6.866  -0.003  -0.004   0.002
 -0.001  -0.003  -0.337   0.002  -0.001
 -0.001  -0.004   0.002  -0.335  -0.001
  0.001   0.002  -0.001  -0.001  -0.338
 total augmentation occupancy for first ion, spin component:           1
  3.567  -0.642   0.241   0.344  -0.123
 -0.642   0.130  -0.045  -0.063   0.023
  0.241  -0.045   0.023   0.019  -0.007
  0.344  -0.063   0.019   0.037  -0.010
 -0.123   0.023  -0.007  -0.010   0.013


------------------------ aborting loop because EDIFF is reached ----------------------------------------


    CHARGE:  cpu time    0.0177: real time    0.0180
    FORLOC:  cpu time    0.0133: real time    0.0133
    FORNL :  cpu time    0.0198: real time    0.0199
    STRESS:  cpu time    0.1463: real time    0.1476
    FORCOR:  cpu time    0.1399: real time    0.1413
    FORHAR:  cpu time    0.0458: real time    0.0471
    MIXING:  cpu time    0.0060: real time    0.0061
    OFIELD:  cpu time    0.0000: real time    0.0000

  FORCE on cell =-STRESS in cart. coord.  units (eV):
  Direction    XX          YY          ZZ          XY          YZ          ZX
  --------------------------------------------------------------------------------------
  Alpha Z     0.23932     0.23932     0.23932
  Ewald      42.84637    42.56916    42.92666     2.15862     1.23242     2.23230
  Hartree    94.60101    95.61328    94.00172     0.95685     0.13138     0.99905
  E(xc)     -27.16512   -27.17350   -27.15956     0.01084     0.00382     0.01162
  Local    -196.19880  -197.28519  -195.51089    -2.85990    -1.01092    -2.97760
  n-local   -15.80878   -15.79686   -15.80389     0.01690    -0.02755     0.01922
  augment     0.11729     0.11995     0.11605    -0.00144    -0.00312    -0.00137
  Kinetic   100.84117   101.21638   100.56130    -0.54002    -0.16311    -0.57936
  Fock        0.00000     0.00000     0.00000     0.00000     0.00000     0.00000
  -------------------------------------------------------------------------------------
  Total      -0.52755    -0.49746    -0.62930    -0.25815     0.16293    -0.29615
  in kB      -0.83500    -0.78738    -0.99606    -0.40861     0.25789    -0.46875
  external pressure =       -0.87 kB  Pullay stress =        0.00 kB

  kinetic pressure (ideal gas correction) =      0.00 kB
  total pressure  =     -0.87 kB
  Total+kin.    -0.835      -0.787      -0.995      -0.409       0.258      -0.469

 VOLUME and BASIS-vectors are now :
 -----------------------------------------------------------------------------
  energy-cutoff  :      400.00
[...]

  ENERGY OF THE ELECTRON-ION-THERMOSTAT SYSTEM (eV)
  ---------------------------------------------------
% ion-electron   TOTEN  =       -24.026455  see above
  kinetic energy EKIN   =         0.006816
  kin. lattice  EKIN_LAT=         0.000000  (temperature   13.18 K)
  nose potential ES     =         0.000000
  nose kinetic   EPS    =         0.000000
  ---------------------------------------------------
  total energy   ETOTAL =       -24.019640 eV

  maximum distance moved by ions :      0.31E-03

    WAVPRE:  cpu time    0.0478: real time    0.0483
    FEWALD:  cpu time    0.0003: real time    0.0003
    ORTHCH:  cpu time    0.0078: real time    0.0079
 Prediction of Wavefunctions ALPHA= 2.184 BETA=-1.221
     LOOP+:  cpu time    1.8222: real time    1.8440


--------------------------------------- Iteration     10(   1)  ---------------------------------------


    POTLOK:  cpu time    0.1351: real time    0.1365
    SETDIJ:  cpu time    0.0021: real time    0.0021
     EDDAV:  cpu time    0.1440: real time    0.1454
       DOS:  cpu time    0.0002: real time    0.0002
    CHARGE:  cpu time    0.0174: real time    0.0179
    MIXING:  cpu time    0.0043: real time    0.0043
    --------------------------------------------
      LOOP:  cpu time    0.3032: real time    0.3065

 eigenvalue-minimisations  :    64
 total energy-change (2. order) : 0.6412913E-03  (-0.9721277E-05)
 number of electron       8.0000002 magnetization 
 augmentation part        0.1862072 magnetization 

 Broyden mixing:
  rms(total) = 0.45990E-04    rms(broyden)= 0.45861E-04
  rms(prec ) = 0.76241E-04
  weight for this iteration     100.00

 Free energy of the ion-electron system (eV)
  ---------------------------------------------------
  alpha Z        PSCENC =         0.23932172
  Ewald energy   TEWEN  =       130.00615654
  -Hartree energ DENC   =      -285.68425146
  -exchange      EXHF   =         0.00000000
  -V(xc)+E(xc)   XCENC  =        24.77846998
  PAW double counting   =       471.70119796     -472.49142945
  entropy T*S    EENTRO =        -0.00000000
  eigenvalues    EBANDS =       -89.61703318
  atomic energy  EATOM  =       197.04175453
  Solvation  Ediel_sol  =         0.00000000
  ---------------------------------------------------
  free energy    TOTEN  =       -24.02581336 eV

  energy without entropy =      -24.02581336  energy(sigma->0) =      -24.02581336


--------------------------------------------------------------------------------------------------------




--------------------------------------- Iteration     10(   2)  ---------------------------------------


    POTLOK:  cpu time    0.1343: real time    0.1440
    SETDIJ:  cpu time    0.0019: real time    0.0019
    EDDIAG:  cpu time    0.0360: real time    0.0426
  RMM-DIIS:  cpu time    0.1170: real time    0.1312
    ORTHCH:  cpu time    0.0016: real time    0.0016
       DOS:  cpu time    0.0002: real time    0.0002
    CHARGE:  cpu time    0.0179: real time    0.0181
    MIXING:  cpu time    0.0045: real time    0.0046
    --------------------------------------------
      LOOP:  cpu time    0.3135: real time    0.3442

 eigenvalue-minimisations  :    48
 total energy-change (2. order) :-0.7552647E-06  (-0.1168130E-06)
 number of electron       8.0000002 magnetization 
 augmentation part        0.1862068 magnetization 

 Broyden mixing:
  rms(total) = 0.41295E-04    rms(broyden)= 0.41261E-04
  rms(prec ) = 0.62716E-04
  weight for this iteration     100.00

 eigenvalues of (default mixing * dielectric matrix)
  average eigenvalue GAMMA=   0.5651
  0.5651

 Free energy of the ion-electron system (eV)
  ---------------------------------------------------
  alpha Z        PSCENC =         0.23932172
  Ewald energy   TEWEN  =       130.00615654
  -Hartree energ DENC   =      -285.68478517
  -exchange      EXHF   =         0.00000000
  -V(xc)+E(xc)   XCENC  =        24.77849283
  PAW double counting   =       471.69818077     -472.48841505
  entropy T*S    EENTRO =        -0.00000000
  eigenvalues    EBANDS =       -89.61652028
  atomic energy  EATOM  =       197.04175453
  Solvation  Ediel_sol  =         0.00000000
  ---------------------------------------------------
  free energy    TOTEN  =       -24.02581411 eV

  energy without entropy =      -24.02581411  energy(sigma->0) =      -24.02581411


--------------------------------------------------------------------------------------------------------




--------------------------------------- Iteration     10(   3)  ---------------------------------------


    POTLOK:  cpu time    0.1345: real time    0.1361
    SETDIJ:  cpu time    0.0020: real time    0.0020
    EDDIAG:  cpu time    0.0373: real time    0.0378
  RMM-DIIS:  cpu time    0.1236: real time    0.1252
    ORTHCH:  cpu time    0.0017: real time    0.0017
       DOS:  cpu time    0.0002: real time    0.0002
    CHARGE:  cpu time    0.0178: real time    0.0179
    MIXING:  cpu time    0.0046: real time    0.0046
    --------------------------------------------
      LOOP:  cpu time    0.3217: real time    0.3256

 eigenvalue-minimisations  :    48
 total energy-change (2. order) :-0.4511027E-06  (-0.1452808E-07)
 number of electron       8.0000002 magnetization 
 augmentation part        0.1862069 magnetization 

 Broyden mixing:
  rms(total) = 0.37620E-04    rms(broyden)= 0.37615E-04
  rms(prec ) = 0.56253E-04
  weight for this iteration     100.00

 eigenvalues of (default mixing * dielectric matrix)
  average eigenvalue GAMMA=   1.3967
  1.3967  1.3967

 Free energy of the ion-electron system (eV)
  ---------------------------------------------------
  alpha Z        PSCENC =         0.23932172
  Ewald energy   TEWEN  =       130.00615654
  -Hartree energ DENC   =      -285.68481654
  -exchange      EXHF   =         0.00000000
  -V(xc)+E(xc)   XCENC  =        24.77849186
  PAW double counting   =       471.69022830     -472.48046358
  entropy T*S    EENTRO =        -0.00000000
  eigenvalues    EBANDS =       -89.61648738
  atomic energy  EATOM  =       197.04175453
  Solvation  Ediel_sol  =         0.00000000
  ---------------------------------------------------
  free energy    TOTEN  =       -24.02581456 eV

  energy without entropy =      -24.02581456  energy(sigma->0) =      -24.02581456


--------------------------------------------------------------------------------------------------------




--------------------------------------- Iteration     10(   4)  ---------------------------------------


    POTLOK:  cpu time    0.1338: real time    0.1361
    SETDIJ:  cpu time    0.0018: real time    0.0019
    EDDIAG:  cpu time    0.0367: real time    0.0370
  RMM-DIIS:  cpu time    0.1156: real time    0.1178
    ORTHCH:  cpu time    0.0014: real time    0.0014
       DOS:  cpu time    0.0002: real time    0.0002
    CHARGE:  cpu time    0.0181: real time    0.0181
    MIXING:  cpu time    0.0048: real time    0.0055
    --------------------------------------------
      LOOP:  cpu time    0.3123: real time    0.3181

 eigenvalue-minimisations  :    36
 total energy-change (2. order) :-0.1122649E-05  (-0.9342251E-09)
 number of electron       8.0000002 magnetization 
 augmentation part        0.1862070 magnetization 

 Broyden mixing:
  rms(total) = 0.79889E-05    rms(broyden)= 0.79860E-05
  rms(prec ) = 0.29285E-04
  weight for this iteration     100.00

 eigenvalues of (default mixing * dielectric matrix)
  average eigenvalue GAMMA=   1.6548
  2.7535  1.1055  1.1055

 Free energy of the ion-electron system (eV)
  ---------------------------------------------------
  alpha Z        PSCENC =         0.23932172
  Ewald energy   TEWEN  =       130.00615654
  -Hartree energ DENC   =      -285.68467888
  -exchange      EXHF   =         0.00000000
  -V(xc)+E(xc)   XCENC  =        24.77848286
  PAW double counting   =       471.66307033     -472.45330634
  entropy T*S    EENTRO =        -0.00000000
  eigenvalues    EBANDS =       -89.61661644
  atomic energy  EATOM  =       197.04175453
  Solvation  Ediel_sol  =         0.00000000
  ---------------------------------------------------
  free energy    TOTEN  =       -24.02581568 eV

  energy without entropy =      -24.02581568  energy(sigma->0) =      -24.02581568


--------------------------------------------------------------------------------------------------------




--------------------------------------- Iteration     10(   5)  ---------------------------------------


    POTLOK:  cpu time    0.1353: real time    0.1378
    SETDIJ:  cpu time    0.0018: real time    0.0018
    EDDIAG:  cpu time    0.0370: real time    0.0373
  RMM-DIIS:  cpu time    0.1183: real time    0.1192
    ORTHCH:  cpu time    0.0017: real time    0.0030
       DOS:  cpu time    0.0002: real time    0.0002
    --------------------------------------------
      LOOP:  cpu time    0.2943: real time    0.2993

 eigenvalue-minimisations  :    40
 total energy-change (2. order) :-0.7145809E-06  (-0.5047588E-08)
 number of electron       8.0000002 magnetization 
 augmentation part        0.1862070 magnetization 

 Free energy of the ion-electron system (eV)
  ---------------------------------------------------
  alpha Z        PSCENC =         0.23932172
  Ewald energy   TEWEN  =       130.00615654
  -Hartree energ DENC   =      -285.68462041
  -exchange      EXHF   =         0.00000000
  -V(xc)+E(xc)   XCENC  =        24.77847941
  PAW double counting   =       471.64975628     -472.43999309
  entropy T*S    EENTRO =        -0.00000000
  eigenvalues    EBANDS =       -89.61667138
  atomic energy  EATOM  =       197.04175453
  Solvation  Ediel_sol  =         0.00000000
  ---------------------------------------------------
  free energy    TOTEN  =       -24.02581640 eV

  energy without entropy =      -24.02581640  energy(sigma->0) =      -24.02581640


--------------------------------------------------------------------------------------------------------




 average (electrostatic) potential at core
  the test charge radii are     0.5201  0.6991
  (the norm of the test charge is              1.0000)
       1 -41.4315       2 -41.4972       3 -41.5538       4 -41.5751       5 -57.9417
 
 
 
 E-fermi :  -8.3163     XC(G=0):  -0.6849     alpha+bet : -0.2081


 k-point     1 :       0.2500    0.2500    0.2500
  band No.  band energies     occupation 
      1     -16.9084      2.00000
      2      -9.3363      2.00000
      3      -9.3244      2.00000
      4      -9.2392      2.00000
      5      -0.3141      0.00000
      6       0.5781      0.00000
      7       0.6878      0.00000
      8       0.7079      0.00000

 k-point     2 :      -0.2500    0.2500    0.2500
  band No.  band energies     occupation 
      1     -16.9084      2.00000
      2      -9.3363      2.00000
      3      -9.3244      2.00000
      4      -9.2394      2.00000
      5      -0.3031      0.00000
      6       0.5489      0.00000
      7       0.6534      0.00000
      8       0.6895      0.00000

 k-point     3 :       0.2500   -0.2500    0.2500
  band No.  band energies     occupation 
      1     -16.9084      2.00000
      2      -9.3363      2.00000
      3      -9.3244      2.00000
      4      -9.2392      2.00000
      5      -0.3096      0.00000
      6       0.5646      0.00000
      7       0.6730      0.00000
      8       0.7018      0.00000

 k-point     4 :      -0.2500   -0.2500    0.2500
  band No.  band energies     occupation 
      1     -16.9084      2.00000
      2      -9.3363      2.00000
      3      -9.3244      2.00000
      4      -9.2393      2.00000
      5      -0.3094      0.00000
      6       0.5624      0.00000
      7       0.6699      0.00000
      8       0.7078      0.00000


--------------------------------------------------------------------------------------------------------


 soft charge-density along one line, spin component           1
         0         1         2         3         4         5         6         7         8         9
 total charge-density along one line
 
 pseudopotential strength for first ion, spin component:           1
 -2.340  -4.033  -0.001  -0.001   0.001
 -4.033  -6.862  -0.003  -0.004   0.002
 -0.001  -0.003  -0.338   0.002  -0.001
 -0.001  -0.004   0.002  -0.336  -0.001
  0.001   0.002  -0.001  -0.001  -0.339
 total augmentation occupancy for first ion, spin component:           1
  3.519  -0.634   0.233   0.329  -0.124
 -0.634   0.128  -0.043  -0.061   0.023
  0.233  -0.043   0.022   0.018  -0.007
  0.329  -0.061   0.018   0.034  -0.010
 -0.124   0.023  -0.007  -0.010   0.012


------------------------ aborting loop because EDIFF is reached ----------------------------------------


    CHARGE:  cpu time    0.0175: real time    0.0178
    FORLOC:  cpu time    0.0132: real time    0.0133
    FORNL :  cpu time    0.0199: real time    0.0200
    STRESS:  cpu time    0.1466: real time    0.1472
    FORCOR:  cpu time    0.1391: real time    0.1421
    FORHAR:  cpu time    0.0462: real time    0.0465
    MIXING:  cpu time    0.0051: real time    0.0051
    OFIELD:  cpu time    0.0000: real time    0.0000

  FORCE on cell =-STRESS in cart. coord.  units (eV):
  Direction    XX          YY          ZZ          XY          YZ          ZX
  --------------------------------------------------------------------------------------
  Alpha Z     0.23932     0.23932     0.23932
  Ewald      43.10007    44.48229    42.42375     1.03972    -0.30405     1.06865
  Hartree    95.07260    96.38829    94.22348     0.50057     0.06867     0.49213
  E(xc)     -27.24989   -27.25230   -27.24883     0.00184     0.00248     0.00167
  Local    -196.92862  -199.57273  -195.34363    -1.37222     0.04807    -1.37524
  n-local   -15.97398   -15.98664   -15.97529    -0.00953     0.02714    -0.01230
  augment     0.11473     0.11402     0.11408    -0.00147     0.00207    -0.00170
  Kinetic   101.35514   101.46949   101.30348    -0.08966    -0.12417    -0.07950
  Fock        0.00000     0.00000     0.00000     0.00000     0.00000     0.00000
  -------------------------------------------------------------------------------------
  Total      -0.27063    -0.11824    -0.26364     0.06924    -0.27978     0.09370
  in kB      -0.42835    -0.18716    -0.41729     0.10959    -0.44284     0.14832
  external pressure =       -0.34 kB  Pullay stress =        0.00 kB

  kinetic pressure (ideal gas correction) =      0.01 kB
  total pressure  =     -0.34 kB
  Total+kin.    -0.419      -0.183      -0.410       0.110      -0.438       0.154

 VOLUME and BASIS-vectors are now :
 -----------------------------------------------------------------------------
  energy-cutoff  :      400.00
  volume of cell :     1012.24
      direct lattice vectors                 reciprocal lattice vectors
    10.061474904  0.000000000  0.000000000     0.099389007 -0.002752730 -0.002937637
     0.275195672  9.936109097  0.000000000     0.000000000  0.100643017  0.000410448
     0.298127462 -0.041293291 10.125234633     0.000000000  0.000000000  0.098763143

  length of vectors
    10.061474904  9.939919348 10.129706881     0.099470508  0.100643854  0.098763143


 FORCES acting on ions
    electron-ion (+dipol)            ewald-force                    non-local-force                 convergence-correction
 -----------------------------------------------------------------------------------------------
   -.155E+02 0.291E+02 0.410E+02   0.171E+02 -.320E+02 -.450E+02   -.158E+01 0.298E+01 0.420E+01   0.173E-05 0.300E-05 -.294E-04
   0.525E+02 -.678E+01 0.271E+01   -.580E+02 0.752E+01 -.298E+01   0.546E+01 -.697E+00 0.291E+00   0.981E-05 -.725E-05 -.304E-04
   -.244E+02 -.473E+02 0.150E+01   0.271E+02 0.525E+02 -.168E+01   -.258E+01 -.498E+01 0.155E+00   -.487E-05 -.210E-04 -.283E-04
   -.125E+02 0.249E+02 -.455E+02   0.139E+02 -.277E+02 0.506E+02   -.133E+01 0.264E+01 -.482E+01   0.181E-05 -.134E-05 -.542E-05
   0.106E+00 0.217E+00 0.735E+00   -.152E+00 -.304E+00 -.957E+00   -.522E-01 -.114E+00 -.233E+00   -.225E-04 0.329E-04 -.109E-03
 -----------------------------------------------------------------------------------------------
   0.791E-01 0.176E+00 0.409E+00   -.352E-14 0.000E+00 0.000E+00   -.791E-01 -.176E+00 -.409E+00   -.140E-04 0.631E-05 -.202E-03
 
 
 POSITION                                       TOTAL-FORCE (eV/Angst)
 -----------------------------------------------------------------------------------
      5.65087      4.01249      3.65129        -0.029092      0.112003      0.174900
      4.24039      4.76304      4.45480        -0.049625      0.035676      0.019474
      5.82491      5.59029      4.48048         0.101082      0.243512     -0.031144
      5.58011      4.11600      5.43723         0.075551     -0.191177      0.291858
      5.32542      4.62327      4.51122        -0.097924     -0.200092     -0.455059
 -----------------------------------------------------------------------------------
    total drift:                               -0.000009     -0.000077      0.000029


--------------------------------------------------------------------------------------------------------



  FREE ENERGIE OF THE ION-ELECTRON SYSTEM (eV)
  ---------------------------------------------------
  free  energy   TOTEN  =       -24.02581640 eV

  energy  without entropy=      -24.02581640  energy(sigma->0) =      -24.02581640
 
 d Force =-0.6397159E-03[-0.846E-03,-0.433E-03]  d Energy =-0.6387691E-03-0.947E-06
 d Force =-0.1541725E+00[-0.154E+00,-0.154E+00]  d Ewald  =-0.1541728E+00 0.347E-06


--------------------------------------------------------------------------------------------------------


    POTLOK:  cpu time    0.2233: real time    0.2285


--------------------------------------------------------------------------------------------------------


           RANDOM_SEED =         172231813               30                0
   IONSTEP:  cpu time    0.0001: real time    0.0001

  ENERGY OF THE ELECTRON-ION-THERMOSTAT SYSTEM (eV)
  ---------------------------------------------------
% ion-electron   TOTEN  =       -24.025816  see above
  kinetic energy EKIN   =         0.006197
  kin. lattice  EKIN_LAT=         0.000000  (temperature   11.99 K)
  nose potential ES     =         0.000000
  nose kinetic   EPS    =         0.000000
  ---------------------------------------------------
  total energy   ETOTAL =       -24.019619 eV

  maximum distance moved by ions :      0.32E-03


 mean value of Nose-termostat <S>:     1.000 mean value of <T> :     9.512
 mean temperature <T/S>/<1/S>  :     9.512

    WAVPRE:  cpu time    0.0518: real time    0.0522
    FEWALD:  cpu time    0.0013: real time    0.0013
    ORTHCH:  cpu time    0.0089: real time    0.0089
 Prediction of Wavefunctions ALPHA= 2.106 BETA=-1.134
    POTLOK:  cpu time    0.1395: real time    0.1973
    EDDIAG:  cpu time    0.0375: real time    0.0379
     LOOP+:  cpu time    2.3998: real time    2.5171
    4ORBIT:  cpu time    0.0000: real time    0.0000

 total amount of memory used by VASP MPI-rank0    56638. kBytes
=======================================================================

   base      :      30000. kBytes
   nonl-proj :       2744. kBytes
   fftplans  :       8576. kBytes
   grid      :      13527. kBytes
   one-center:          6. kBytes
   wavefun   :       1785. kBytes
 
  
  
 General timing and accounting informations for this job:
 ========================================================
  
                  Total CPU time used (sec):       27.649
                            User time (sec):       25.791
                          System time (sec):        1.857
                         Elapsed time (sec):       28.451
  
                   Maximum memory used (kb):      178932.
                   Average memory used (kb):           0.
  
                          Minor page faults:       256032
                          Major page faults:            7
                 Voluntary context switches:          101
