 vasp.5.4.4.18Apr17-6-g9f103f2a35 (build Jul 09 2021 13:05:15) complex          
  
 executed on             LinuxIFC date 2021.11.04  19:02:12
 running on   16 total cores
 distrk:  each k-point on   16 cores,    1 groups
 distr:  one band on NCORES_PER_BAND=   4 cores,    4 groups


--------------------------------------------------------------------------------------------------------


 INCAR:
 POTCAR:    PAW_PBE H 15Jun2001                   
 POTCAR:    PAW_PBE C 08Apr2002                   
 POTCAR:    PAW_PBE H 15Jun2001                   
   VRHFIN =H: ultrasoft test                                                    
   LEXCH  = PE                                                                  
   EATOM  =    12.4884 eV,    0.9179 Ry                                         
                                                                                
   TITEL  = PAW_PBE H 15Jun2001                                                 
   LULTRA =        F    use ultrasoft PP ?                                      
   IUNSCR =        0    unscreen: 0-lin 1-nonlin 2-no                           
   RPACOR =    0.000    partial core radius                                     
   POMASS =    1.000; ZVAL   =    1.000    mass and valenz                      
   RCORE  =    1.100    outmost cutoff radius                                   
   RWIGS  =    0.700; RWIGS  =    0.370    wigner-seitz radius (au A)           
   ENMAX  =  250.000; ENMIN  =  200.000 eV                                      
   RCLOC  =    0.701    cutoff for local pot                                    
   LCOR   =        T    correct aug charges                                     
   LPAW   =        T    paw PP                                                  
   EAUG   =  400.000                                                            
   RMAX   =    1.123    core radius for proj-oper                               
   RAUG   =    1.200    factor for augmentation sphere                          
   RDEP   =    1.112    radius for radial grids                                 
   RDEPT  =    0.926    core radius for aug-charge                              
                                                                                
   Atomic configuration                                                         
    2 entries                                                                   
     n  l   j            E        occ.                                          
     1  0  0.50        -6.4927   1.0000                                         
     2  1  0.50        -3.4015   0.0000                                         
   Description                                                                  
     l       E           TYP  RCUT    TYP  RCUT                                 
     0     -6.4927494     23  1.100                                             
     0      6.8029130     23  1.100                                             
     1     -4.0817478     23  1.100                                             
  local pseudopotential read in
  atomic valenz-charges read in
  non local Contribution for L=           0  read in
    real space projection operators read in
  non local Contribution for L=           0  read in
    real space projection operators read in
  non local Contribution for L=           1  read in
    real space projection operators read in
    PAW grid and wavefunctions read in
 
   number of l-projection  operators is LMAX  =           3
   number of lm-projection operators is LMMAX =           5
 
 POTCAR:    PAW_PBE C 08Apr2002                   
   VRHFIN =C: s2p2                                                              
   LEXCH  = PE                                                                  
   EATOM  =   147.1560 eV,   10.8157 Ry                                         
                                                                                
   TITEL  = PAW_PBE C 08Apr2002                                                 
   LULTRA =        F    use ultrasoft PP ?                                      
   IUNSCR =        1    unscreen: 0-lin 1-nonlin 2-no                           
   RPACOR =    1.200    partial core radius                                     
   POMASS =   12.011; ZVAL   =    4.000    mass and valenz                      
   RCORE  =    1.500    outmost cutoff radius                                   
   RWIGS  =    1.630; RWIGS  =    0.863    wigner-seitz radius (au A)           
   ENMAX  =  400.000; ENMIN  =  300.000 eV                                      
   ICORE  =        2    local potential                                         
   LCOR   =        T    correct aug charges                                     
   LPAW   =        T    paw PP                                                  
   EAUG   =  644.873                                                            
   DEXC   =    0.000                                                            
   RMAX   =    1.529    core radius for proj-oper                               
   RAUG   =    1.300    factor for augmentation sphere                          
   RDEP   =    1.501    radius for radial grids                                 
   RDEPT  =    1.300    core radius for aug-charge                              
                                                                                
   Atomic configuration                                                         
    4 entries                                                                   
     n  l   j            E        occ.                                          
     1  0  0.50      -273.3789   2.0000                                         
     2  0  0.50       -13.7508   2.0000                                         
     2  1  0.50        -5.2854   2.0000                                         
     3  2  1.50        -5.4423   0.0000                                         
   Description                                                                  
     l       E           TYP  RCUT    TYP  RCUT                                 
     0    -13.7508458     23  1.200                                             
     0     -8.2022199     23  1.200                                             
     1     -5.2854383     23  1.500                                             
     1     34.0145650     23  1.500                                             
     2     -5.4423304      7  1.500                                             
  local pseudopotential read in
  partial core-charges read in
  partial kinetic energy density read in
  atomic valenz-charges read in
  non local Contribution for L=           0  read in
    real space projection operators read in
  non local Contribution for L=           0  read in
    real space projection operators read in
  non local Contribution for L=           1  read in
    real space projection operators read in
  non local Contribution for L=           1  read in
    real space projection operators read in
    PAW grid and wavefunctions read in
 
   number of l-projection  operators is LMAX  =           4
   number of lm-projection operators is LMMAX =           8
 
  PAW_PBE H 15Jun2001                   :
 energy of atom  1       EATOM=  -12.4884
 kinetic energy error for atom=    0.0098 (will be added to EATOM!!)
  PAW_PBE C 08Apr2002                   :
 energy of atom  2       EATOM= -147.1560
 kinetic energy error for atom=    0.0288 (will be added to EATOM!!)
 
 
 POSCAR:  H  C                                   
  positions in cartesian coordinates
  No initial velocities read in
 exchange correlation table for  LEXCH =        8
   RHO(1)=    0.500       N(1)  =     2000
   RHO(2)=  100.500       N(2)  =     4000
 


--------------------------------------------------------------------------------------------------------


 ion  position               nearest neighbor table
   1  0.538  0.407  0.361-   5 1.09
   2  0.395  0.481  0.438-   5 1.13
   3  0.553  0.565  0.442-   5 1.08
   4  0.528  0.416  0.539-   5 1.11
   5  0.504  0.467  0.445-   3 1.08   1 1.09   4 1.11   2 1.13
 

IMPORTANT INFORMATION: All symmetrisations will be switched off!
NOSYMM: (Re-)initialisation of all symmetry stuff for point group C_1.

 
 

Automatic generation of k-mesh.
 generate k-points for:    2    2    2
Space group operators:
 irot       det(A)        alpha          n_x          n_y          n_z        tau_x        tau_y        tau_z
    1     1.000000     0.000001     1.000000     0.000000     0.000000     0.000000     0.000000     0.000000
 
 Subroutine IBZKPT returns following result:
 ===========================================
 
 Found      4 irreducible k-points:
 
 Following reciprocal coordinates:
            Coordinates               Weight
  0.250000  0.250000  0.250000      2.000000
 -0.250000  0.250000  0.250000      2.000000
  0.250000 -0.250000  0.250000      2.000000
 -0.250000 -0.250000  0.250000      2.000000
 
 Following cartesian coordinates:
            Coordinates               Weight
  0.024468  0.025889  0.024650      2.000000
 -0.024468  0.024960  0.025337      2.000000
  0.024468 -0.024960  0.024193      2.000000
 -0.024468 -0.025889  0.024880      2.000000
 


--------------------------------------------------------------------------------------------------------




 Dimension of arrays:
   k-points           NKPTS =      4   k-points in BZ     NKDIM =      4   number of bands    NBANDS=      8
   number of dos      NEDOS =    301   number of ions     NIONS =      5
   non local maximal  LDIM  =      4   non local SUM 2l+1 LMDIM =      8
   total plane-waves  NPLWV = 313600
   max r-space proj   IRMAX =      1   max aug-charges    IRDMAX=   3848
   dimension x,y,z NGX =    70 NGY =   64 NGZ =   70
   dimension x,y,z NGXF=   140 NGYF=  128 NGZF=  140
   support grid    NGXF=   140 NGYF=  128 NGZF=  140
   ions per type =               4   1
   NGX,Y,Z   is equivalent  to a cutoff of  11.39, 10.82, 11.53 a.u.
   NGXF,Y,Z  is equivalent  to a cutoff of  22.78, 21.64, 23.05 a.u.

 SYSTEM =  unknown system                          
 POSCAR =   H  C                                   

 Startparameter for this run:
   NWRITE =      2    write-flag & timer
   PREC   = a         normal or accurate (medium, high low for compatibility)
   ISTART =      0    job   : 0-new  1-cont  2-samecut
   ICHARG =      2    charge: 1-file 2-atom 10-const
   ISPIN  =      1    spin polarized calculation?
   LNONCOLLINEAR =      F non collinear calculations
   LSORBIT =      F    spin-orbit coupling
   INIWAV =      1    electr: 0-lowe 1-rand  2-diag
   LASPH  =      F    aspherical Exc in radial PAW
   METAGGA=      F    non-selfconsistent MetaGGA calc.

 Electronic Relaxation 1
   ENCUT  =  400.0 eV  29.40 Ry    5.42 a.u.  16.66 16.04 16.46*2*pi/ulx,y,z
   ENINI  =  400.0     initial cutoff
   ENAUG  =  644.9 eV  augmentation charge cutoff
   NELM   =    120;   NELMIN=  4; NELMDL= -5     # of ELM steps 
   EDIFF  = 0.1E-05   stopping-criterion for ELM
   LREAL  =      F    real-space projection
   NLSPLINE    = F    spline interpolate recip. space projectors
   LCOMPAT=      F    compatible to vasp.4.4
   GGA_COMPAT  = T    GGA compatible to vasp.4.4-vasp.4.6
   LMAXPAW     = -100 max onsite density
   LMAXMIX     =    2 max onsite mixed and CHGCAR
   VOSKOWN=      0    Vosko Wilk Nusair interpolation
   ROPT   =    0.00000   0.00000
 Ionic relaxation
   EDIFFG = 0.1E-04   stopping-criterion for IOM
   NSW    =     10    number of steps for IOM
   NBLOCK =      1;   KBLOCK =     10    inner block; outer block 
   IBRION =      0    ionic relax: 0-MD 1-quasi-New 2-CG
   NFREE  =      0    steps in history (QN), initial steepest desc. (CG)
   ISIF   =      2    stress and relaxation
   IWAVPR =     12    prediction:  0-non 1-charg 2-wave 3-comb
   ISYM   =      0    0-nonsym 1-usesym 2-fastsym
   LCORR  =      T    Harris-Foulkes like correction to forces

   POTIM  = 0.5000    time-step for ionic-motion
   TEIN   =    0.0    initial temperature
   TEBEG  =    0.0;   TEEND  =   0.0 temperature during run
   SMASS  =  -3.00    Nose mass-parameter (am)
   estimated Nose-frequenzy (Omega)   =  0.10E-29 period in steps =****** mass=  -0.239E-26a.u.
   SCALEE = 1.0000    scale energy and forces
   NPACO  =    256;   APACO  = 16.0  distance and # of slots for P.C.
   PSTRESS=    0.0 pullay stress

  Mass of Ions in am
   POMASS =   1.00 12.01
  Ionic Valenz
   ZVAL   =   1.00  4.00
  Atomic Wigner-Seitz radii
   RWIGS  =  -1.00 -1.00
  virtual crystal weights 
   VCA    =   1.00  1.00
   NELECT =       8.0000    total number of electrons
   NUPDOWN=      -1.0000    fix difference up-down

 DOS related values:
   EMIN   =  10.00;   EMAX   =-10.00  energy-range for DOS
   EFERMI =   0.00
   ISMEAR =     0;   SIGMA  =   0.20  broadening in eV -4-tet -1-fermi 0-gaus

 Electronic relaxation 2 (details)
   IALGO  =     68    algorithm
   LDIAG  =      T    sub-space diagonalisation (order eigenvalues)
   LSUBROT=      F    optimize rotation matrix (better conditioning)
   TURBO    =      0    0=normal 1=particle mesh
   IRESTART =      0    0=no restart 2=restart with 2 vectors
   NREBOOT  =      0    no. of reboots
   NMIN     =      0    reboot dimension
   EREF     =   0.00    reference energy to select bands
   IMIX   =      4    mixing-type and parameters
     AMIX     =   0.40;   BMIX     =  1.00
     AMIX_MAG =   1.60;   BMIX_MAG =  1.00
     AMIN     =   0.10
     WC   =   100.;   INIMIX=   1;  MIXPRE=   1;  MAXMIX= -45

 Intra band minimization:
   WEIMIN = 0.0010     energy-eigenvalue tresh-hold
   EBREAK =  0.31E-07  absolut break condition
   DEPER  =   0.30     relativ break condition  

   TIME   =   0.40     timestep for ELM

  volume/ion in A,a.u.               =     202.84      1368.86
  Fermi-wavevector in a.u.,A,eV,Ry     =   0.325882  0.615828  1.444926  0.106199
  Thomas-Fermi vector in A             =   1.217262
 
 Write flags
   LWAVE        =      F    write WAVECAR
   LDOWNSAMPLE  =      F    k-point downsampling of WAVECAR
   LCHARG       =      F    write CHGCAR
   LVTOT        =      F    write LOCPOT, total local potential
   LVHAR        =      F    write LOCPOT, Hartree potential only
   LELF         =      F    write electronic localiz. function (ELF)
   LORBIT       =      0    0 simple, 1 ext, 2 COOP (PROOUT), +10 PAW based schemes


 Dipole corrections
   LMONO  =      F    monopole corrections only (constant potential shift)
   LDIPOL =      F    correct potential (dipole corrections)
   IDIPOL =      0    1-x, 2-y, 3-z, 4-all directions 
   EPSILON=  1.0000000 bulk dielectric constant

 Exchange correlation treatment:
   GGA     =    --    GGA type
   LEXCH   =     8    internal setting for exchange type
   VOSKOWN=      0    Vosko Wilk Nusair interpolation
   LHFCALC =     F    Hartree Fock is set to
   LHFONE  =     F    Hartree Fock one center treatment
   AEXX    =    0.0000 exact exchange contribution

 Linear response parameters
   LEPSILON=     F    determine dielectric tensor
   LRPA    =     F    only Hartree local field effects (RPA)
   LNABLA  =     F    use nabla operator in PAW spheres
   LVEL    =     F    velocity operator in full k-point grid
   LINTERFAST=   F  fast interpolation
   KINTER  =     0    interpolate to denser k-point grid
   CSHIFT  =0.1000    complex shift for real part using Kramers Kronig
   OMEGAMAX=  -1.0    maximum frequency
   DEG_THRESHOLD= 0.2000000E-02 threshold for treating states as degnerate
   RTIME   =   -0.100 relaxation time in fs
  (WPLASMAI=    0.000 imaginary part of plasma frequency in eV, 0.658/RTIME)
   DFIELD  = 0.0000000 0.0000000 0.0000000 field for delta impulse in time
 
 Orbital magnetization related:
   ORBITALMAG=     F  switch on orbital magnetization
   LCHIMAG   =     F  perturbation theory with respect to B field
   DQ        =  0.001000  dq finite difference perturbation B field
   LLRAUG    =     F  two centre corrections for induced B field



--------------------------------------------------------------------------------------------------------


 molecular dynamics for ions
   using a microcanonical ensemble
 charge density and potential will be updated during run
 non-spin polarized calculation
 RMM-DIIS sequential band-by-band and
  variant of blocked Davidson during initial phase
 perform sub-space diagonalisation
    before iterative eigenvector-optimisation
 modified Broyden-mixing scheme, WC =      100.0
 initial mixing is a Kerker type mixing with AMIX =  0.4000 and BMIX =      1.0000
 Hartree-type preconditioning will be used
 using additional bands            4
 reciprocal scheme for non local part
 use partial core corrections
 calculate Harris-corrections to forces 
   (improved forces if not selfconsistent)
 use gradient corrections 
 use of overlap-Matrix (Vanderbilt PP)
 Gauss-broadening in eV      SIGMA  =   0.20


--------------------------------------------------------------------------------------------------------


  energy-cutoff  :      400.00
  volume of cell :     1014.22
      direct lattice vectors                 reciprocal lattice vectors
    10.217610125  0.000000000  0.000000000     0.097870244  0.001858506 -0.001374988
    -0.186721769  9.832902890  0.000000000     0.000000000  0.101699367  0.000914714
     0.143548400 -0.090796556 10.094904875     0.000000000  0.000000000  0.099059874

  length of vectors
    10.217610125  9.834675605 10.096333721     0.097897545  0.101703481  0.099059874


 
 k-points in units of 2pi/SCALE and weight: read from INCAR                         
   0.02446756  0.02588947  0.02464990       0.250
  -0.02446756  0.02496022  0.02533739       0.250
   0.02446756 -0.02496022  0.02419254       0.250
  -0.02446756 -0.02588947  0.02488004       0.250
 
 k-points in reciprocal lattice and weights: read from INCAR                         
   0.25000000  0.25000000  0.25000000       0.250
  -0.25000000  0.25000000  0.25000000       0.250
   0.25000000 -0.25000000  0.25000000       0.250
  -0.25000000 -0.25000000  0.25000000       0.250
 
 position of ions in fractional coordinates (direct lattice) 
   0.53810977  0.40682987  0.36066538
   0.39480234  0.48053095  0.43834973
   0.55282641  0.56537031  0.44234123
   0.52818325  0.41640625  0.53920165
   0.50364201  0.46717845  0.44488499
 
 position of ions in cartesian coordinates  (Angst):
   5.47400477  3.96757144  3.64088267
   4.00713519  4.68521354  4.42509883
   5.60649519  5.51906825  4.46539268
   5.39641992  4.04552459  5.44318939
   5.12264779  4.55332631  4.49107163
 


--------------------------------------------------------------------------------------------------------


 k-point  1 :   0.2500 0.2500 0.2500  plane waves:   18439
 k-point  2 :  -0.2500 0.2500 0.2500  plane waves:   18431
 k-point  3 :   0.2500-0.2500 0.2500  plane waves:   18408
 k-point  4 :  -0.2500-0.2500 0.2500  plane waves:   18436

 maximum and minimum number of plane-waves per node :      4627     4591

 maximum number of plane-waves:     18439
 maximum index in each direction: 
   IXMAX=   16   IYMAX=   16   IZMAX=   16
   IXMIN=  -16   IYMIN=  -16   IZMIN=  -16


 parallel 3D FFT for wavefunctions:
    minimum data exchange during FFTs selected (reduces bandwidth)
 parallel 3D FFT for charge:
    minimum data exchange during FFTs selected (reduces bandwidth)


 total amount of memory used by VASP MPI-rank0    53550. kBytes
=======================================================================

   base      :      30000. kBytes
   nonl-proj :       2737. kBytes
   fftplans  :       7847. kBytes
   grid      :      12367. kBytes
   one-center:          6. kBytes
   wavefun   :        593. kBytes
 
     INWAV:  cpu time    0.0000: real time    0.0000
 Broyden mixing: mesh for mixing (old mesh)
   NGX = 33   NGY = 33   NGZ = 33
  (NGX  =140   NGY  =128   NGZ  =140)
  gives a total of  35937 points

 initial charge density was supplied:
 charge density of overlapping atoms calculated
 number of electron       8.0000000 magnetization 
 keeping initial charge density in first step


--------------------------------------------------------------------------------------------------------


 Maximum index for augmentation-charges          153 (set IRDMAX)


--------------------------------------------------------------------------------------------------------


 First call to EWALD:  gamma=   0.176
 Maximum number of real-space cells 3x 3x 3
 Maximum number of reciprocal cells 3x 3x 3

    FEWALD:  cpu time    0.0015: real time    0.0015


--------------------------------------- Iteration      1(   1)  ---------------------------------------


    POTLOK:  cpu time    0.1246: real time    0.1325
    SETDIJ:  cpu time    0.0029: real time    0.0034
     EDDAV:  cpu time    0.1865: real time    0.2006
       DOS:  cpu time    0.0006: real time    0.0013
    --------------------------------------------
      LOOP:  cpu time    0.3146: real time    0.3378

 eigenvalue-minimisations  :    96
 total energy-change (2. order) : 0.1320090E+02  (-0.1943927E+03)
 number of electron       8.0000000 magnetization 
 augmentation part        8.0000000 magnetization 

 Free energy of the ion-electron system (eV)
  ---------------------------------------------------
  alpha Z        PSCENC =         0.23885366
  Ewald energy   TEWEN  =       128.13002662
  -Hartree energ DENC   =      -243.94353467
  -exchange      EXHF   =         0.00000000
  -V(xc)+E(xc)   XCENC  =        21.97982463
  PAW double counting   =       117.05815612     -117.66307307
  entropy T*S    EENTRO =        -0.00000000
  eigenvalues    EBANDS =       -89.64110873
  atomic energy  EATOM  =       197.04175453
  Solvation  Ediel_sol  =         0.00000000
  ---------------------------------------------------
  free energy    TOTEN  =        13.20089909 eV

  energy without entropy =       13.20089909  energy(sigma->0) =       13.20089909


--------------------------------------------------------------------------------------------------------




--------------------------------------- Iteration      1(   2)  ---------------------------------------


     EDDAV:  cpu time    0.1382: real time    0.1382
       DOS:  cpu time    0.0002: real time    0.0002
    --------------------------------------------
      LOOP:  cpu time    0.1383: real time    0.1384

 eigenvalue-minimisations  :    64
 total energy-change (2. order) :-0.3601410E+02  (-0.3601410E+02)
 number of electron       8.0000000 magnetization 
 augmentation part        8.0000000 magnetization 

 Free energy of the ion-electron system (eV)
  ---------------------------------------------------
  alpha Z        PSCENC =         0.23885366
  Ewald energy   TEWEN  =       128.13002662
  -Hartree energ DENC   =      -243.94353467
  -exchange      EXHF   =         0.00000000
  -V(xc)+E(xc)   XCENC  =        21.97982463
  PAW double counting   =       117.05815612     -117.66307307
  entropy T*S    EENTRO =        -0.00000000
  eigenvalues    EBANDS =      -125.65520673
  atomic energy  EATOM  =       197.04175453
  Solvation  Ediel_sol  =         0.00000000
  ---------------------------------------------------
  free energy    TOTEN  =       -22.81319891 eV

  energy without entropy =      -22.81319891  energy(sigma->0) =      -22.81319891


--------------------------------------------------------------------------------------------------------




--------------------------------------- Iteration      1(   3)  ---------------------------------------


     EDDAV:  cpu time    0.1385: real time    0.1385
       DOS:  cpu time    0.0002: real time    0.0002
    --------------------------------------------
      LOOP:  cpu time    0.1387: real time    0.1387

 eigenvalue-minimisations  :    64
 total energy-change (2. order) :-0.4466358E+01  (-0.4466358E+01)
 number of electron       8.0000000 magnetization 
 augmentation part        8.0000000 magnetization 

 Free energy of the ion-electron system (eV)
  ---------------------------------------------------
  alpha Z        PSCENC =         0.23885366
  Ewald energy   TEWEN  =       128.13002662
  -Hartree energ DENC   =      -243.94353467
  -exchange      EXHF   =         0.00000000
  -V(xc)+E(xc)   XCENC  =        21.97982463
  PAW double counting   =       117.05815612     -117.66307307
  entropy T*S    EENTRO =        -0.00000000
  eigenvalues    EBANDS =      -130.12156429
  atomic energy  EATOM  =       197.04175453
  Solvation  Ediel_sol  =         0.00000000
  ---------------------------------------------------
  free energy    TOTEN  =       -27.27955647 eV

  energy without entropy =      -27.27955647  energy(sigma->0) =      -27.27955647


--------------------------------------------------------------------------------------------------------




--------------------------------------- Iteration      1(   4)  ---------------------------------------


     EDDAV:  cpu time    0.2308: real time    0.2329
       DOS:  cpu time    0.0002: real time    0.0002
    --------------------------------------------
      LOOP:  cpu time    0.2310: real time    0.2330

 eigenvalue-minimisations  :   128
 total energy-change (2. order) :-0.1854577E+00  (-0.1854577E+00)
 number of electron       8.0000000 magnetization 
 augmentation part        8.0000000 magnetization 

 Free energy of the ion-electron system (eV)
  ---------------------------------------------------
  alpha Z        PSCENC =         0.23885366
  Ewald energy   TEWEN  =       128.13002662
  -Hartree energ DENC   =      -243.94353467
  -exchange      EXHF   =         0.00000000
  -V(xc)+E(xc)   XCENC  =        21.97982463
  PAW double counting   =       117.05815612     -117.66307307
  entropy T*S    EENTRO =        -0.00000000
  eigenvalues    EBANDS =      -130.30702196
  atomic energy  EATOM  =       197.04175453
  Solvation  Ediel_sol  =         0.00000000
  ---------------------------------------------------
  free energy    TOTEN  =       -27.46501414 eV

  energy without entropy =      -27.46501414  energy(sigma->0) =      -27.46501414


--------------------------------------------------------------------------------------------------------




--------------------------------------- Iteration      1(   5)  ---------------------------------------


     EDDAV:  cpu time    0.1832: real time    0.1832
       DOS:  cpu time    0.0002: real time    0.0002
    CHARGE:  cpu time    0.0179: real time    0.0179
    MIXING:  cpu time    0.0038: real time    0.0038
    --------------------------------------------
      LOOP:  cpu time    0.2051: real time    0.2051

 eigenvalue-minimisations  :    96
 total energy-change (2. order) :-0.6741528E-04  (-0.6741542E-04)
 number of electron       8.0000001 magnetization 
 augmentation part        0.2234055 magnetization 

 Broyden mixing:
  rms(total) = 0.86287E+00    rms(broyden)= 0.86267E+00
  rms(prec ) = 0.12187E+01
  weight for this iteration     100.00

 Free energy of the ion-electron system (eV)
  ---------------------------------------------------
  alpha Z        PSCENC =         0.23885366
  Ewald energy   TEWEN  =       128.13002662
  -Hartree energ DENC   =      -243.94353467
  -exchange      EXHF   =         0.00000000
  -V(xc)+E(xc)   XCENC  =        21.97982463
  PAW double counting   =       117.05815612     -117.66307307
  entropy T*S    EENTRO =        -0.00000000
  eigenvalues    EBANDS =      -130.30708937
  atomic energy  EATOM  =       197.04175453
  Solvation  Ediel_sol  =         0.00000000
  ---------------------------------------------------
  free energy    TOTEN  =       -27.46508155 eV

  energy without entropy =      -27.46508155  energy(sigma->0) =      -27.46508155


--------------------------------------------------------------------------------------------------------




--------------------------------------- Iteration      1(   6)  ---------------------------------------


    POTLOK:  cpu time    0.1205: real time    0.1205
    SETDIJ:  cpu time    0.0015: real time    0.0015
    EDDIAG:  cpu time    0.0361: real time    0.0439
  RMM-DIIS:  cpu time    0.1382: real time    0.1383
    ORTHCH:  cpu time    0.0014: real time    0.0014
       DOS:  cpu time    0.0002: real time    0.0002
    CHARGE:  cpu time    0.0167: real time    0.0167
    MIXING:  cpu time    0.0043: real time    0.0056
    --------------------------------------------
      LOOP:  cpu time    0.3189: real time    0.3281

 eigenvalue-minimisations  :    64
 total energy-change (2. order) : 0.2834704E+01  (-0.5201972E+00)
 number of electron       8.0000000 magnetization 
 augmentation part        0.1968813 magnetization 

 Broyden mixing:
  rms(total) = 0.42560E+00    rms(broyden)= 0.42551E+00
  rms(prec ) = 0.55027E+00
  weight for this iteration     100.00

 eigenvalues of (default mixing * dielectric matrix)
  average eigenvalue GAMMA=   1.3005
  1.3005

 Free energy of the ion-electron system (eV)
  ---------------------------------------------------
  alpha Z        PSCENC =         0.23885366
  Ewald energy   TEWEN  =       128.13002662
  -Hartree energ DENC   =      -263.46950151
  -exchange      EXHF   =         0.00000000
  -V(xc)+E(xc)   XCENC  =        23.16503622
  PAW double counting   =       236.68781756     -237.46481513
  entropy T*S    EENTRO =        -0.00000000
  eigenvalues    EBANDS =      -108.95954903
  atomic energy  EATOM  =       197.04175453
  Solvation  Ediel_sol  =         0.00000000
  ---------------------------------------------------
  free energy    TOTEN  =       -24.63037708 eV

  energy without entropy =      -24.63037708  energy(sigma->0) =      -24.63037708


--------------------------------------------------------------------------------------------------------




--------------------------------------- Iteration      1(   7)  ---------------------------------------


    POTLOK:  cpu time    0.1208: real time    0.1208
    SETDIJ:  cpu time    0.0016: real time    0.0016
    EDDIAG:  cpu time    0.0319: real time    0.0319
  RMM-DIIS:  cpu time    0.1366: real time    0.1366
    ORTHCH:  cpu time    0.0014: real time    0.0014
       DOS:  cpu time    0.0002: real time    0.0002
    CHARGE:  cpu time    0.0157: real time    0.0157
    MIXING:  cpu time    0.0042: real time    0.0042
    --------------------------------------------
      LOOP:  cpu time    0.3124: real time    0.3124

 eigenvalue-minimisations  :    64
 total energy-change (2. order) : 0.4811888E+00  (-0.1150545E+00)
 number of electron       8.0000000 magnetization 
 augmentation part        0.1866223 magnetization 

 Broyden mixing:
  rms(total) = 0.22673E+00    rms(broyden)= 0.22667E+00
  rms(prec ) = 0.27378E+00
  weight for this iteration     100.00

 eigenvalues of (default mixing * dielectric matrix)
  average eigenvalue GAMMA=   1.8400
  1.4485  2.2315

 Free energy of the ion-electron system (eV)
  ---------------------------------------------------
  alpha Z        PSCENC =         0.23885366
  Ewald energy   TEWEN  =       128.13002662
  -Hartree energ DENC   =      -274.91891237
  -exchange      EXHF   =         0.00000000
  -V(xc)+E(xc)   XCENC  =        24.00840600
  PAW double counting   =       360.24829291     -361.06286686
  entropy T*S    EENTRO =        -0.00000000
  eigenvalues    EBANDS =       -97.83474273
  atomic energy  EATOM  =       197.04175453
  Solvation  Ediel_sol  =         0.00000000
  ---------------------------------------------------
  free energy    TOTEN  =       -24.14918824 eV

  energy without entropy =      -24.14918824  energy(sigma->0) =      -24.14918824


--------------------------------------------------------------------------------------------------------




--------------------------------------- Iteration      1(   8)  ---------------------------------------


    POTLOK:  cpu time    0.1210: real time    0.1210
    SETDIJ:  cpu time    0.0015: real time    0.0015
    EDDIAG:  cpu time    0.0316: real time    0.0316
  RMM-DIIS:  cpu time    0.1389: real time    0.1389
    ORTHCH:  cpu time    0.0014: real time    0.0014
       DOS:  cpu time    0.0002: real time    0.0002
    CHARGE:  cpu time    0.0159: real time    0.0159
    MIXING:  cpu time    0.0042: real time    0.0042
    --------------------------------------------
      LOOP:  cpu time    0.3147: real time    0.3147

 eigenvalue-minimisations  :    64
 total energy-change (2. order) : 0.1456747E+00  (-0.1626617E-01)
 number of electron       8.0000000 magnetization 
 augmentation part        0.1852508 magnetization 

 Broyden mixing:
  rms(total) = 0.22691E-01    rms(broyden)= 0.22670E-01
  rms(prec ) = 0.52194E-01
  weight for this iteration     100.00

 eigenvalues of (default mixing * dielectric matrix)
  average eigenvalue GAMMA=   1.5454
  2.2478  0.9888  1.3996

 Free energy of the ion-electron system (eV)
  ---------------------------------------------------
  alpha Z        PSCENC =         0.23885366
  Ewald energy   TEWEN  =       128.13002662
  -Hartree energ DENC   =      -280.33227363
  -exchange      EXHF   =         0.00000000
  -V(xc)+E(xc)   XCENC  =        24.54499060
  PAW double counting   =       467.31024148     -468.09328613
  entropy T*S    EENTRO =        -0.00000000
  eigenvalues    EBANDS =       -92.84382061
  atomic energy  EATOM  =       197.04175453
  Solvation  Ediel_sol  =         0.00000000
  ---------------------------------------------------
  free energy    TOTEN  =       -24.00351350 eV

  energy without entropy =      -24.00351350  energy(sigma->0) =      -24.00351350


--------------------------------------------------------------------------------------------------------




--------------------------------------- Iteration      1(   9)  ---------------------------------------


    POTLOK:  cpu time    0.1208: real time    0.1208
    SETDIJ:  cpu time    0.0014: real time    0.0014
    EDDIAG:  cpu time    0.0313: real time    0.0313
  RMM-DIIS:  cpu time    0.1383: real time    0.1383
    ORTHCH:  cpu time    0.0014: real time    0.0014
       DOS:  cpu time    0.0002: real time    0.0002
    CHARGE:  cpu time    0.0159: real time    0.0159
    MIXING:  cpu time    0.0046: real time    0.0054
    --------------------------------------------
      LOOP:  cpu time    0.3138: real time    0.3146

 eigenvalue-minimisations  :    64
 total energy-change (2. order) : 0.5577661E-02  (-0.1086388E-02)
 number of electron       8.0000000 magnetization 
 augmentation part        0.1846938 magnetization 

 Broyden mixing:
  rms(total) = 0.19393E-01    rms(broyden)= 0.19389E-01
  rms(prec ) = 0.39980E-01
  weight for this iteration     100.00

 eigenvalues of (default mixing * dielectric matrix)
  average eigenvalue GAMMA=   2.0865
  1.0037  1.3672  2.9875  2.9875

 Free energy of the ion-electron system (eV)
  ---------------------------------------------------
  alpha Z        PSCENC =         0.23885366
  Ewald energy   TEWEN  =       128.13002662
  -Hartree energ DENC   =      -281.57535315
  -exchange      EXHF   =         0.00000000
  -V(xc)+E(xc)   XCENC  =        24.61311360
  PAW double counting   =       470.31122018     -471.09694133
  entropy T*S    EENTRO =        -0.00000000
  eigenvalues    EBANDS =       -91.66060994
  atomic energy  EATOM  =       197.04175453
  Solvation  Ediel_sol  =         0.00000000
  ---------------------------------------------------
  free energy    TOTEN  =       -23.99793584 eV

  energy without entropy =      -23.99793584  energy(sigma->0) =      -23.99793584


--------------------------------------------------------------------------------------------------------




--------------------------------------- Iteration      1(  10)  ---------------------------------------


    POTLOK:  cpu time    0.1169: real time    0.1169
    SETDIJ:  cpu time    0.0014: real time    0.0014
    EDDIAG:  cpu time    0.0312: real time    0.0312
  RMM-DIIS:  cpu time    0.1385: real time    0.1385
    ORTHCH:  cpu time    0.0014: real time    0.0014
       DOS:  cpu time    0.0002: real time    0.0002
    CHARGE:  cpu time    0.0158: real time    0.0159
    MIXING:  cpu time    0.0046: real time    0.0046
    --------------------------------------------
      LOOP:  cpu time    0.3101: real time    0.3102

 eigenvalue-minimisations  :    64
 total energy-change (2. order) : 0.6302370E-02  (-0.2401232E-02)
 number of electron       8.0000000 magnetization 
 augmentation part        0.1836688 magnetization 

 Broyden mixing:
  rms(total) = 0.27185E-01    rms(broyden)= 0.27184E-01
  rms(prec ) = 0.34717E-01
  weight for this iteration     100.00

 eigenvalues of (default mixing * dielectric matrix)
  average eigenvalue GAMMA=   1.7856
  3.0622  2.4091  0.9826  1.2371  1.2371

 Free energy of the ion-electron system (eV)
  ---------------------------------------------------
  alpha Z        PSCENC =         0.23885366
  Ewald energy   TEWEN  =       128.13002662
  -Hartree energ DENC   =      -283.75318729
  -exchange      EXHF   =         0.00000000
  -V(xc)+E(xc)   XCENC  =        24.68319644
  PAW double counting   =       454.84515230     -455.63425768
  entropy T*S    EENTRO =        -0.00000000
  eigenvalues    EBANDS =       -89.54317205
  atomic energy  EATOM  =       197.04175453
  Solvation  Ediel_sol  =         0.00000000
  ---------------------------------------------------
  free energy    TOTEN  =       -23.99163347 eV

  energy without entropy =      -23.99163347  energy(sigma->0) =      -23.99163347


--------------------------------------------------------------------------------------------------------




--------------------------------------- Iteration      1(  11)  ---------------------------------------


    POTLOK:  cpu time    0.1162: real time    0.1162
    SETDIJ:  cpu time    0.0014: real time    0.0014
    EDDIAG:  cpu time    0.0312: real time    0.0312
  RMM-DIIS:  cpu time    0.1368: real time    0.1368
    ORTHCH:  cpu time    0.0014: real time    0.0014
       DOS:  cpu time    0.0002: real time    0.0002
    CHARGE:  cpu time    0.0158: real time    0.0158
    MIXING:  cpu time    0.0045: real time    0.0045
    --------------------------------------------
      LOOP:  cpu time    0.3075: real time    0.3075

 eigenvalue-minimisations  :    64
 total energy-change (2. order) :-0.8541647E-03  (-0.8387272E-03)
 number of electron       8.0000000 magnetization 
 augmentation part        0.1840395 magnetization 

 Broyden mixing:
  rms(total) = 0.90309E-02    rms(broyden)= 0.90278E-02
  rms(prec ) = 0.14668E-01
  weight for this iteration     100.00

 eigenvalues of (default mixing * dielectric matrix)
  average eigenvalue GAMMA=   2.2578
  4.7501  3.0686  2.4270  1.2751  1.0129  1.0129

 Free energy of the ion-electron system (eV)
  ---------------------------------------------------
  alpha Z        PSCENC =         0.23885366
  Ewald energy   TEWEN  =       128.13002662
  -Hartree energ DENC   =      -283.65240073
  -exchange      EXHF   =         0.00000000
  -V(xc)+E(xc)   XCENC  =        24.69780919
  PAW double counting   =       463.95246728     -464.73401092
  entropy T*S    EENTRO =        -0.00000000
  eigenvalues    EBANDS =       -89.66698726
  atomic energy  EATOM  =       197.04175453
  Solvation  Ediel_sol  =         0.00000000
  ---------------------------------------------------
  free energy    TOTEN  =       -23.99248763 eV

  energy without entropy =      -23.99248763  energy(sigma->0) =      -23.99248763


--------------------------------------------------------------------------------------------------------




--------------------------------------- Iteration      1(  12)  ---------------------------------------


    POTLOK:  cpu time    0.1092: real time    0.1092
    SETDIJ:  cpu time    0.0014: real time    0.0014
    EDDIAG:  cpu time    0.0313: real time    0.0313
  RMM-DIIS:  cpu time    0.1393: real time    0.1393
    ORTHCH:  cpu time    0.0014: real time    0.0014
       DOS:  cpu time    0.0002: real time    0.0002
    CHARGE:  cpu time    0.0161: real time    0.0161
    MIXING:  cpu time    0.0049: real time    0.0049
    --------------------------------------------
      LOOP:  cpu time    0.3038: real time    0.3038

 eigenvalue-minimisations  :    64
 total energy-change (2. order) :-0.9267601E-02  (-0.2986780E-03)
 number of electron       8.0000000 magnetization 
 augmentation part        0.1842238 magnetization 

 Broyden mixing:
  rms(total) = 0.11690E-01    rms(broyden)= 0.11689E-01
  rms(prec ) = 0.15333E-01
  weight for this iteration     100.00

 eigenvalues of (default mixing * dielectric matrix)
  average eigenvalue GAMMA=   2.0107
  4.7443  2.9100  2.4228  1.2141  1.0046  1.0046  0.7747

 Free energy of the ion-electron system (eV)
  ---------------------------------------------------
  alpha Z        PSCENC =         0.23885366
  Ewald energy   TEWEN  =       128.13002662
  -Hartree energ DENC   =      -283.87253410
  -exchange      EXHF   =         0.00000000
  -V(xc)+E(xc)   XCENC  =        24.68986294
  PAW double counting   =       460.62950648     -461.41031956
  entropy T*S    EENTRO =        -0.00000000
  eigenvalues    EBANDS =       -89.44890579
  atomic energy  EATOM  =       197.04175453
  Solvation  Ediel_sol  =         0.00000000
  ---------------------------------------------------
  free energy    TOTEN  =       -24.00175523 eV

  energy without entropy =      -24.00175523  energy(sigma->0) =      -24.00175523


--------------------------------------------------------------------------------------------------------




--------------------------------------- Iteration      1(  13)  ---------------------------------------


    POTLOK:  cpu time    0.1090: real time    0.1091
    SETDIJ:  cpu time    0.0016: real time    0.0016
    EDDIAG:  cpu time    0.0310: real time    0.0310
  RMM-DIIS:  cpu time    0.1379: real time    0.1379
    ORTHCH:  cpu time    0.0016: real time    0.0016
       DOS:  cpu time    0.0002: real time    0.0002
    CHARGE:  cpu time    0.0156: real time    0.0156
    MIXING:  cpu time    0.0051: real time    0.0051
    --------------------------------------------
      LOOP:  cpu time    0.3019: real time    0.3019

 eigenvalue-minimisations  :    64
 total energy-change (2. order) :-0.6272416E-03  (-0.1023617E-03)
 number of electron       8.0000000 magnetization 
 augmentation part        0.1839779 magnetization 

 Broyden mixing:
  rms(total) = 0.42104E-02    rms(broyden)= 0.42101E-02
  rms(prec ) = 0.59544E-02
  weight for this iteration     100.00

 eigenvalues of (default mixing * dielectric matrix)
  average eigenvalue GAMMA=   2.3863
  6.0110  3.9884  2.4512  2.3082  1.2245  1.2245  0.9883  0.8943

 Free energy of the ion-electron system (eV)
  ---------------------------------------------------
  alpha Z        PSCENC =         0.23885366
  Ewald energy   TEWEN  =       128.13002662
  -Hartree energ DENC   =      -284.05273958
  -exchange      EXHF   =         0.00000000
  -V(xc)+E(xc)   XCENC  =        24.69474751
  PAW double counting   =       460.42761309     -461.21076740
  entropy T*S    EENTRO =        -0.00000000
  eigenvalues    EBANDS =       -89.27187089
  atomic energy  EATOM  =       197.04175453
  Solvation  Ediel_sol  =         0.00000000
  ---------------------------------------------------
  free energy    TOTEN  =       -24.00238247 eV

  energy without entropy =      -24.00238247  energy(sigma->0) =      -24.00238247


--------------------------------------------------------------------------------------------------------




--------------------------------------- Iteration      1(  14)  ---------------------------------------


    POTLOK:  cpu time    0.1074: real time    0.1074
    SETDIJ:  cpu time    0.0016: real time    0.0016
    EDDIAG:  cpu time    0.0312: real time    0.0312
  RMM-DIIS:  cpu time    0.1378: real time    0.1378
    ORTHCH:  cpu time    0.0014: real time    0.0014
       DOS:  cpu time    0.0002: real time    0.0002
    CHARGE:  cpu time    0.0156: real time    0.0156
    MIXING:  cpu time    0.0051: real time    0.0051
    --------------------------------------------
      LOOP:  cpu time    0.3004: real time    0.3004

 eigenvalue-minimisations  :    64
 total energy-change (2. order) :-0.2809575E-02  (-0.1067151E-03)
 number of electron       8.0000000 magnetization 
 augmentation part        0.1838809 magnetization 

 Broyden mixing:
  rms(total) = 0.22734E-02    rms(broyden)= 0.22719E-02
  rms(prec ) = 0.30554E-02
  weight for this iteration     100.00

 eigenvalues of (default mixing * dielectric matrix)
  average eigenvalue GAMMA=   2.3458
  6.4343  3.9199  2.6286  2.3473  1.4044  1.2369  1.2369  0.9877  0.9160

 Free energy of the ion-electron system (eV)
  ---------------------------------------------------
  alpha Z        PSCENC =         0.23885366
  Ewald energy   TEWEN  =       128.13002662
  -Hartree energ DENC   =      -284.04016730
  -exchange      EXHF   =         0.00000000
  -V(xc)+E(xc)   XCENC  =        24.68469502
  PAW double counting   =       459.83567608     -460.61987581
  entropy T*S    EENTRO =        -0.00000000
  eigenvalues    EBANDS =       -89.27615485
  atomic energy  EATOM  =       197.04175453
  Solvation  Ediel_sol  =         0.00000000
  ---------------------------------------------------
  free energy    TOTEN  =       -24.00519205 eV

  energy without entropy =      -24.00519205  energy(sigma->0) =      -24.00519205


--------------------------------------------------------------------------------------------------------




--------------------------------------- Iteration      1(  15)  ---------------------------------------


    POTLOK:  cpu time    0.1075: real time    0.1075
    SETDIJ:  cpu time    0.0016: real time    0.0016
    EDDIAG:  cpu time    0.0310: real time    0.0310
  RMM-DIIS:  cpu time    0.1389: real time    0.1389
    ORTHCH:  cpu time    0.0014: real time    0.0014
       DOS:  cpu time    0.0002: real time    0.0002
    CHARGE:  cpu time    0.0157: real time    0.0157
    MIXING:  cpu time    0.0054: real time    0.0054
    --------------------------------------------
      LOOP:  cpu time    0.3018: real time    0.3018

 eigenvalue-minimisations  :    64
 total energy-change (2. order) :-0.2969978E-03  (-0.4363999E-05)
 number of electron       8.0000000 magnetization 
 augmentation part        0.1838356 magnetization 

 Broyden mixing:
  rms(total) = 0.16451E-02    rms(broyden)= 0.16448E-02
  rms(prec ) = 0.21900E-02
  weight for this iteration     100.00

 eigenvalues of (default mixing * dielectric matrix)
  average eigenvalue GAMMA=   2.5181
  7.5092  4.7922  2.7447  2.6382  2.0973  1.2558  1.2558  0.9946  0.9946  0.8988

 Free energy of the ion-electron system (eV)
  ---------------------------------------------------
  alpha Z        PSCENC =         0.23885366
  Ewald energy   TEWEN  =       128.13002662
  -Hartree energ DENC   =      -284.05036310
  -exchange      EXHF   =         0.00000000
  -V(xc)+E(xc)   XCENC  =        24.68561967
  PAW double counting   =       459.93698477     -460.72079411
  entropy T*S    EENTRO =        -0.00000000
  eigenvalues    EBANDS =       -89.26757109
  atomic energy  EATOM  =       197.04175453
  Solvation  Ediel_sol  =         0.00000000
  ---------------------------------------------------
  free energy    TOTEN  =       -24.00548905 eV

  energy without entropy =      -24.00548905  energy(sigma->0) =      -24.00548905


--------------------------------------------------------------------------------------------------------




--------------------------------------- Iteration      1(  16)  ---------------------------------------


    POTLOK:  cpu time    0.1085: real time    0.1085
    SETDIJ:  cpu time    0.0014: real time    0.0014
    EDDIAG:  cpu time    0.0310: real time    0.0310
  RMM-DIIS:  cpu time    0.1378: real time    0.1378
    ORTHCH:  cpu time    0.0014: real time    0.0014
       DOS:  cpu time    0.0002: real time    0.0002
    CHARGE:  cpu time    0.0156: real time    0.0156
    MIXING:  cpu time    0.0055: real time    0.0055
    --------------------------------------------
      LOOP:  cpu time    0.3014: real time    0.3014

 eigenvalue-minimisations  :    64
 total energy-change (2. order) :-0.1971625E-03  (-0.7368688E-05)
 number of electron       8.0000000 magnetization 
 augmentation part        0.1838747 magnetization 

 Broyden mixing:
  rms(total) = 0.33614E-03    rms(broyden)= 0.33576E-03
  rms(prec ) = 0.50412E-03
  weight for this iteration     100.00

 eigenvalues of (default mixing * dielectric matrix)
  average eigenvalue GAMMA=   2.5217
  7.7762  4.8737  3.3358  2.4170  2.0042  2.0042  1.2319  1.2319  1.0129  0.9255
  0.9255

 Free energy of the ion-electron system (eV)
  ---------------------------------------------------
  alpha Z        PSCENC =         0.23885366
  Ewald energy   TEWEN  =       128.13002662
  -Hartree energ DENC   =      -284.00971069
  -exchange      EXHF   =         0.00000000
  -V(xc)+E(xc)   XCENC  =        24.68411255
  PAW double counting   =       459.92779857     -460.71112588
  entropy T*S    EENTRO =        -0.00000000
  eigenvalues    EBANDS =       -89.30739557
  atomic energy  EATOM  =       197.04175453
  Solvation  Ediel_sol  =         0.00000000
  ---------------------------------------------------
  free energy    TOTEN  =       -24.00568621 eV

  energy without entropy =      -24.00568621  energy(sigma->0) =      -24.00568621


--------------------------------------------------------------------------------------------------------




--------------------------------------- Iteration      1(  17)  ---------------------------------------


    POTLOK:  cpu time    0.1106: real time    0.1106
    SETDIJ:  cpu time    0.0015: real time    0.0015
    EDDIAG:  cpu time    0.0310: real time    0.0310
  RMM-DIIS:  cpu time    0.1385: real time    0.1385
    ORTHCH:  cpu time    0.0014: real time    0.0014
       DOS:  cpu time    0.0002: real time    0.0002
    CHARGE:  cpu time    0.0155: real time    0.0155
    MIXING:  cpu time    0.0057: real time    0.0057
    --------------------------------------------
      LOOP:  cpu time    0.3044: real time    0.3044

 eigenvalue-minimisations  :    64
 total energy-change (2. order) :-0.4582542E-04  (-0.1304679E-05)
 number of electron       8.0000000 magnetization 
 augmentation part        0.1838545 magnetization 

 Broyden mixing:
  rms(total) = 0.43337E-03    rms(broyden)= 0.43336E-03
  rms(prec ) = 0.60367E-03
  weight for this iteration     100.00

 eigenvalues of (default mixing * dielectric matrix)
  average eigenvalue GAMMA=   2.5878
  8.4379  5.2974  3.8735  2.5285  2.5285  1.9021  1.2810  1.2810  1.0852  0.9922
  0.9233  0.9233

 Free energy of the ion-electron system (eV)
  ---------------------------------------------------
  alpha Z        PSCENC =         0.23885366
  Ewald energy   TEWEN  =       128.13002662
  -Hartree energ DENC   =      -284.04435678
  -exchange      EXHF   =         0.00000000
  -V(xc)+E(xc)   XCENC  =        24.68573245
  PAW double counting   =       459.91921887     -460.70277732
  entropy T*S    EENTRO =        -0.00000000
  eigenvalues    EBANDS =       -89.27418406
  atomic energy  EATOM  =       197.04175453
  Solvation  Ediel_sol  =         0.00000000
  ---------------------------------------------------
  free energy    TOTEN  =       -24.00573204 eV

  energy without entropy =      -24.00573204  energy(sigma->0) =      -24.00573204


--------------------------------------------------------------------------------------------------------




--------------------------------------- Iteration      1(  18)  ---------------------------------------


    POTLOK:  cpu time    0.1124: real time    0.1124
    SETDIJ:  cpu time    0.0015: real time    0.0015
    EDDIAG:  cpu time    0.0309: real time    0.0309
  RMM-DIIS:  cpu time    0.1365: real time    0.1365
    ORTHCH:  cpu time    0.0014: real time    0.0014
       DOS:  cpu time    0.0002: real time    0.0002
    CHARGE:  cpu time    0.0157: real time    0.0157
    MIXING:  cpu time    0.0060: real time    0.0060
    --------------------------------------------
      LOOP:  cpu time    0.3046: real time    0.3046

 eigenvalue-minimisations  :    64
 total energy-change (2. order) :-0.8472530E-05  (-0.4290986E-06)
 number of electron       8.0000000 magnetization 
 augmentation part        0.1838665 magnetization 

 Broyden mixing:
  rms(total) = 0.10850E-03    rms(broyden)= 0.10840E-03
  rms(prec ) = 0.13872E-03
  weight for this iteration     100.00

 eigenvalues of (default mixing * dielectric matrix)
  average eigenvalue GAMMA=   2.6056
  8.5123  5.4715  3.9025  2.9471  2.3260  2.3260  2.0029  1.2472  1.2472  0.9049
  1.0263  0.9795  0.9795

 Free energy of the ion-electron system (eV)
  ---------------------------------------------------
  alpha Z        PSCENC =         0.23885366
  Ewald energy   TEWEN  =       128.13002662
  -Hartree energ DENC   =      -284.02791126
  -exchange      EXHF   =         0.00000000
  -V(xc)+E(xc)   XCENC  =        24.68497566
  PAW double counting   =       459.92498148     -460.70838344
  entropy T*S    EENTRO =        -0.00000000
  eigenvalues    EBANDS =       -89.29003776
  atomic energy  EATOM  =       197.04175453
  Solvation  Ediel_sol  =         0.00000000
  ---------------------------------------------------
  free energy    TOTEN  =       -24.00574051 eV

  energy without entropy =      -24.00574051  energy(sigma->0) =      -24.00574051


--------------------------------------------------------------------------------------------------------




--------------------------------------- Iteration      1(  19)  ---------------------------------------


    POTLOK:  cpu time    0.1140: real time    0.1140
    SETDIJ:  cpu time    0.0016: real time    0.0016
    EDDIAG:  cpu time    0.0308: real time    0.0308
  RMM-DIIS:  cpu time    0.1094: real time    0.1094
    ORTHCH:  cpu time    0.0014: real time    0.0014
       DOS:  cpu time    0.0002: real time    0.0002
    CHARGE:  cpu time    0.0156: real time    0.0156
    MIXING:  cpu time    0.0062: real time    0.0062
    --------------------------------------------
      LOOP:  cpu time    0.2791: real time    0.2791

 eigenvalue-minimisations  :    48
 total energy-change (2. order) :-0.4111852E-05  (-0.4275227E-07)
 number of electron       8.0000000 magnetization 
 augmentation part        0.1838705 magnetization 

 Broyden mixing:
  rms(total) = 0.12989E-03    rms(broyden)= 0.12987E-03
  rms(prec ) = 0.17817E-03
  weight for this iteration     100.00

 eigenvalues of (default mixing * dielectric matrix)
  average eigenvalue GAMMA=   2.5637
  8.5655  5.6088  3.9010  3.6945  2.4332  2.4332  1.9747  1.2566  1.2566  1.0435
  0.9249  0.9249  0.9370  0.9370

 Free energy of the ion-electron system (eV)
  ---------------------------------------------------
  alpha Z        PSCENC =         0.23885366
  Ewald energy   TEWEN  =       128.13002662
  -Hartree energ DENC   =      -284.02367001
  -exchange      EXHF   =         0.00000000
  -V(xc)+E(xc)   XCENC  =        24.68463234
  PAW double counting   =       459.89579995     -460.67919151
  entropy T*S    EENTRO =        -0.00000000
  eigenvalues    EBANDS =       -89.29395019
  atomic energy  EATOM  =       197.04175453
  Solvation  Ediel_sol  =         0.00000000
  ---------------------------------------------------
  free energy    TOTEN  =       -24.00574462 eV

  energy without entropy =      -24.00574462  energy(sigma->0) =      -24.00574462


--------------------------------------------------------------------------------------------------------




--------------------------------------- Iteration      1(  20)  ---------------------------------------


    POTLOK:  cpu time    0.1140: real time    0.1140
    SETDIJ:  cpu time    0.0015: real time    0.0015
    EDDIAG:  cpu time    0.0309: real time    0.0309
  RMM-DIIS:  cpu time    0.1100: real time    0.1100
    ORTHCH:  cpu time    0.0014: real time    0.0014
       DOS:  cpu time    0.0002: real time    0.0002
    --------------------------------------------
      LOOP:  cpu time    0.2578: real time    0.2578

 eigenvalue-minimisations  :    48
 total energy-change (2. order) :-0.5601167E-06  (-0.2722977E-07)
 number of electron       8.0000000 magnetization 
 augmentation part        0.1838705 magnetization 

 Free energy of the ion-electron system (eV)
  ---------------------------------------------------
  alpha Z        PSCENC =         0.23885366
  Ewald energy   TEWEN  =       128.13002662
  -Hartree energ DENC   =      -284.02721158
  -exchange      EXHF   =         0.00000000
  -V(xc)+E(xc)   XCENC  =        24.68477199
  PAW double counting   =       459.89526705     -460.67870687
  entropy T*S    EENTRO =        -0.00000000
  eigenvalues    EBANDS =       -89.29050058
  atomic energy  EATOM  =       197.04175453
  Solvation  Ediel_sol  =         0.00000000
  ---------------------------------------------------
  free energy    TOTEN  =       -24.00574518 eV

  energy without entropy =      -24.00574518  energy(sigma->0) =      -24.00574518


--------------------------------------------------------------------------------------------------------




 average (electrostatic) potential at core
  the test charge radii are     0.5201  0.6991
  (the norm of the test charge is              1.0000)
       1 -41.5503       2 -41.3065       3 -41.6227       4 -41.3837       5 -57.9968
 
 
 
 E-fermi :  -8.2847     XC(G=0):  -0.6921     alpha+bet : -0.2077


 k-point     1 :       0.2500    0.2500    0.2500
  band No.  band energies     occupation 
      1     -16.8481      2.00000
      2      -9.3180      2.00000
      3      -9.2694      2.00000
      4      -9.2099      2.00000
      5      -0.3230      0.00000
      6       0.5535      0.00000
      7       0.6565      0.00000
      8       0.6922      0.00000

 k-point     2 :      -0.2500    0.2500    0.2500
  band No.  band energies     occupation 
      1     -16.8481      2.00000
      2      -9.3179      2.00000
      3      -9.2695      2.00000
      4      -9.2099      2.00000
      5      -0.3238      0.00000
      6       0.5489      0.00000
      7       0.6512      0.00000
      8       0.7029      0.00000

 k-point     3 :       0.2500   -0.2500    0.2500
  band No.  band energies     occupation 
      1     -16.8480      2.00000
      2      -9.3178      2.00000
      3      -9.2695      2.00000
      4      -9.2097      2.00000
      5      -0.3275      0.00000
      6       0.5554      0.00000
      7       0.6665      0.00000
      8       0.7096      0.00000

 k-point     4 :      -0.2500   -0.2500    0.2500
  band No.  band energies     occupation 
      1     -16.8481      2.00000
      2      -9.3179      2.00000
      3      -9.2695      2.00000
      4      -9.2098      2.00000
      5      -0.3221      0.00000
      6       0.5471      0.00000
      7       0.6508      0.00000
      8       0.6967      0.00000


--------------------------------------------------------------------------------------------------------


 soft charge-density along one line, spin component           1
         0         1         2         3         4         5         6         7         8         9
 total charge-density along one line
 
 pseudopotential strength for first ion, spin component:           1
 -2.341  -4.035  -0.001  -0.001   0.001
 -4.035  -6.867  -0.003  -0.004   0.002
 -0.001  -0.003  -0.337   0.002  -0.001
 -0.001  -0.004   0.002  -0.335  -0.001
  0.001   0.002  -0.001  -0.001  -0.338
 total augmentation occupancy for first ion, spin component:           1
  3.569  -0.642   0.235   0.342  -0.142
 -0.642   0.130  -0.044  -0.063   0.026
  0.235  -0.044   0.022   0.019  -0.008
  0.342  -0.063   0.019   0.037  -0.011
 -0.142   0.026  -0.008  -0.011   0.014


------------------------ aborting loop because EDIFF is reached ----------------------------------------


    CHARGE:  cpu time    0.0154: real time    0.0154
    FORLOC:  cpu time    0.0101: real time    0.0101
    FORNL :  cpu time    0.0173: real time    0.0173
    STRESS:  cpu time    0.1381: real time    0.1388
    FORCOR:  cpu time    0.1149: real time    0.1149
    FORHAR:  cpu time    0.0355: real time    0.0355
    MIXING:  cpu time    0.0066: real time    0.0066
    OFIELD:  cpu time    0.0000: real time    0.0000

  FORCE on cell =-STRESS in cart. coord.  units (eV):
  Direction    XX          YY          ZZ          XY          YZ          ZX
  --------------------------------------------------------------------------------------
  Alpha Z     0.23885     0.23885     0.23885
  Ewald      40.66922    44.81795    42.64282     0.10185     0.31552     0.30615
  Hartree    93.08325    96.67906    94.26676    -0.45664    -0.20887     0.40667
  E(xc)     -27.14096   -27.16100   -27.14579    -0.00261    -0.00191     0.00374
  Local    -192.87379  -200.08693  -195.66354     0.62586     0.12884    -0.82486
  n-local   -15.69606   -15.85260   -15.76275    -0.04599    -0.03540     0.02721
  augment     0.12182     0.11493     0.11824    -0.00298    -0.00243     0.00140
  Kinetic   100.31880   101.41171   100.60733     0.15832     0.11480    -0.19016
  Fock        0.00000     0.00000     0.00000     0.00000     0.00000     0.00000
  -------------------------------------------------------------------------------------
  Total      -1.27886     0.16197    -0.69807     0.37782     0.31055    -0.26985
  in kB      -2.02023     0.25586    -1.10275     0.59684     0.49058    -0.42629
  external pressure =       -0.96 kB  Pullay stress =        0.00 kB

  kinetic pressure (ideal gas correction) =      0.00 kB
  total pressure  =     -0.96 kB
  Total+kin.    -2.020       0.256      -1.103       0.597       0.491      -0.426

 VOLUME and BASIS-vectors are now :
 -----------------------------------------------------------------------------
  energy-cutoff  :      400.00
  volume of cell :     1014.22
      direct lattice vectors                 reciprocal lattice vectors
    10.217610125  0.000000000  0.000000000     0.097870244  0.001858506 -0.001374988
    -0.186721769  9.832902890  0.000000000     0.000000000  0.101699367  0.000914714
     0.143548400 -0.090796556 10.094904875     0.000000000  0.000000000  0.099059874

  length of vectors
    10.217610125  9.834675605 10.096333721     0.097897545  0.101703481  0.099059874


 FORCES acting on ions
    electron-ion (+dipol)            ewald-force                    non-local-force                 convergence-correction
 -----------------------------------------------------------------------------------------------
   -.170E+02 0.285E+02 0.413E+02   0.188E+02 -.317E+02 -.458E+02   -.181E+01 0.299E+01 0.437E+01   0.481E-04 -.427E-04 -.867E-04
   0.511E+02 -.596E+01 0.298E+01   -.553E+02 0.644E+01 -.320E+01   0.506E+01 -.601E+00 0.306E+00   -.110E-03 0.157E-04 -.894E-05
   -.239E+02 -.478E+02 0.124E+01   0.267E+02 0.535E+02 -.138E+01   -.259E+01 -.513E+01 0.137E+00   0.595E-04 0.824E-04 -.700E-05
   -.127E+02 0.238E+02 -.445E+02   0.138E+02 -.260E+02 0.486E+02   -.131E+01 0.239E+01 -.451E+01   0.374E-04 -.360E-04 0.877E-04
   0.346E+01 0.190E+01 -.155E+01   -.405E+01 -.221E+01 0.185E+01   -.254E+00 -.870E-01 0.183E+00   0.729E-04 0.461E-04 -.293E-04
 -----------------------------------------------------------------------------------------------
   0.902E+00 0.439E+00 -.489E+00   0.888E-14 -.355E-14 0.000E+00   -.902E+00 -.438E+00 0.489E+00   0.108E-03 0.654E-04 -.443E-04
 
 
 POSITION                                       TOTAL-FORCE (eV/Angst)
 -----------------------------------------------------------------------------------
      5.47400      3.96757      3.64088         0.016793     -0.192115     -0.127922
      4.00714      4.68521      4.42510         0.847097     -0.123529      0.093929
      5.60650      5.51907      4.46539         0.181219      0.553357     -0.001237
      5.39642      4.04552      5.44319        -0.207936      0.163660     -0.447180
      5.12265      4.55333      4.49107        -0.837440     -0.400695      0.482488
 -----------------------------------------------------------------------------------
    total drift:                               -0.000267      0.000677      0.000078


--------------------------------------------------------------------------------------------------------



  FREE ENERGIE OF THE ION-ELECTRON SYSTEM (eV)
  ---------------------------------------------------
  free  energy   TOTEN  =       -24.00574518 eV

  energy  without entropy=      -24.00574518  energy(sigma->0) =      -24.00574518
 


--------------------------------------------------------------------------------------------------------


    POTLOK:  cpu time    0.1155: real time    0.1155


--------------------------------------------------------------------------------------------------------


           RANDOM_SEED =         172212846                0                0
           RANDOM_SEED =         172212846               30                0
   IONSTEP:  cpu time    0.0028: real time    0.0058

  ENERGY OF THE ELECTRON-ION-THERMOSTAT SYSTEM (eV)
  ---------------------------------------------------
% ion-electron   TOTEN  =       -24.005745  see above
  kinetic energy EKIN   =         0.000451
  kin. lattice  EKIN_LAT=         0.000000  (temperature    0.87 K)
  nose potential ES     =         0.000000
  nose kinetic   EPS    =         0.000000
  ---------------------------------------------------
  total energy   ETOTAL =       -24.005294 eV

  maximum distance moved by ions :      0.20E-03

    WAVPRE:  cpu time    0.0349: real time    0.0349
    FEWALD:  cpu time    0.0005: real time    0.0005
    ORTHCH:  cpu time    0.0079: real time    0.0079
     LOOP+:  cpu time    6.0634: real time    6.1046


--------------------------------------- Iteration      2(   1)  ---------------------------------------


    POTLOK:  cpu time    0.1156: real time    0.1156
    SETDIJ:  cpu time    0.0015: real time    0.0015
     EDDAV:  cpu time    0.1814: real time    0.1814
       DOS:  cpu time    0.0002: real time    0.0002
    CHARGE:  cpu time    0.0152: real time    0.0152
    MIXING:  cpu time    0.0053: real time    0.0053
    --------------------------------------------
      LOOP:  cpu time    0.3193: real time    0.3193

 eigenvalue-minimisations  :    96
 total energy-change (2. order) :-0.3471871E-02  (-0.3775906E-03)
 number of electron       8.0000000 magnetization 
 augmentation part        0.1839717 magnetization 

 Broyden mixing:
  rms(total) = 0.26686E-02    rms(broyden)= 0.26663E-02
  rms(prec ) = 0.31359E-02
  weight for this iteration     100.00

 Free energy of the ion-electron system (eV)
  ---------------------------------------------------
  alpha Z        PSCENC =         0.23885366
  Ewald energy   TEWEN  =       128.20232476
  -Hartree energ DENC   =      -284.07591365
  -exchange      EXHF   =         0.00000000
  -V(xc)+E(xc)   XCENC  =        24.68719044
  PAW double counting   =       459.89785124     -460.68129755
  entropy T*S    EENTRO =        -0.00000000
  eigenvalues    EBANDS =       -89.31997992
  atomic energy  EATOM  =       197.04175453
  Solvation  Ediel_sol  =         0.00000000
  ---------------------------------------------------
  free energy    TOTEN  =       -24.00921649 eV

  energy without entropy =      -24.00921649  energy(sigma->0) =      -24.00921649


--------------------------------------------------------------------------------------------------------




--------------------------------------- Iteration      2(   2)  ---------------------------------------


    POTLOK:  cpu time    0.1183: real time    0.1183
    SETDIJ:  cpu time    0.0015: real time    0.0015
    EDDIAG:  cpu time    0.0311: real time    0.0311
  RMM-DIIS:  cpu time    0.1389: real time    0.1389
    ORTHCH:  cpu time    0.0014: real time    0.0014
       DOS:  cpu time    0.0002: real time    0.0002
    CHARGE:  cpu time    0.0156: real time    0.0156
    MIXING:  cpu time    0.0039: real time    0.0039
    --------------------------------------------
      LOOP:  cpu time    0.3109: real time    0.3109

 eigenvalue-minimisations  :    64
 total energy-change (2. order) : 0.2093972E-05  (-0.9944225E-05)
 number of electron       8.0000000 magnetization 
 augmentation part        0.1839566 magnetization 

 Broyden mixing:
  rms(total) = 0.16561E-02    rms(broyden)= 0.16556E-02
  rms(prec ) = 0.19217E-02
  weight for this iteration     100.00

 eigenvalues of (default mixing * dielectric matrix)
  average eigenvalue GAMMA=   2.0443
  2.0443

 Free energy of the ion-electron system (eV)
  ---------------------------------------------------
  alpha Z        PSCENC =         0.23885366
  Ewald energy   TEWEN  =       128.20232476
  -Hartree energ DENC   =      -284.09054069
  -exchange      EXHF   =         0.00000000
  -V(xc)+E(xc)   XCENC  =        24.68793324
  PAW double counting   =       460.11552381     -460.89912686
  entropy T*S    EENTRO =        -0.00000000
  eigenvalues    EBANDS =       -89.30593685
  atomic energy  EATOM  =       197.04175453
  Solvation  Ediel_sol  =         0.00000000
  ---------------------------------------------------
  free energy    TOTEN  =       -24.00921440 eV

  energy without entropy =      -24.00921440  energy(sigma->0) =      -24.00921440


--------------------------------------------------------------------------------------------------------




--------------------------------------- Iteration      2(   3)  ---------------------------------------


    POTLOK:  cpu time    0.1177: real time    0.1177
    SETDIJ:  cpu time    0.0014: real time    0.0014
    EDDIAG:  cpu time    0.0311: real time    0.0311
  RMM-DIIS:  cpu time    0.1385: real time    0.1385
    ORTHCH:  cpu time    0.0014: real time    0.0014
       DOS:  cpu time    0.0002: real time    0.0002
    CHARGE:  cpu time    0.0157: real time    0.0157
    MIXING:  cpu time    0.0040: real time    0.0040
    --------------------------------------------
      LOOP:  cpu time    0.3099: real time    0.3099

 eigenvalue-minimisations  :    64
 total energy-change (2. order) : 0.1317486E-05  (-0.1634065E-05)
 number of electron       8.0000000 magnetization 
 augmentation part        0.1839425 magnetization 

 Broyden mixing:
  rms(total) = 0.31892E-03    rms(broyden)= 0.31862E-03
  rms(prec ) = 0.39893E-03
  weight for this iteration     100.00

 eigenvalues of (default mixing * dielectric matrix)
  average eigenvalue GAMMA=   1.6462
  1.1022  2.1902

 Free energy of the ion-electron system (eV)
  ---------------------------------------------------
  alpha Z        PSCENC =         0.23885366
  Ewald energy   TEWEN  =       128.20232476
  -Hartree energ DENC   =      -284.09936039
  -exchange      EXHF   =         0.00000000
  -V(xc)+E(xc)   XCENC  =        24.68842583
  PAW double counting   =       460.26518713     -461.04888473
  entropy T*S    EENTRO =        -0.00000000
  eigenvalues    EBANDS =       -89.29751386
  atomic energy  EATOM  =       197.04175453
  Solvation  Ediel_sol  =         0.00000000
  ---------------------------------------------------
  free energy    TOTEN  =       -24.00921308 eV

  energy without entropy =      -24.00921308  energy(sigma->0) =      -24.00921308


--------------------------------------------------------------------------------------------------------




--------------------------------------- Iteration      2(   4)  ---------------------------------------


    POTLOK:  cpu time    0.1179: real time    0.1179
    SETDIJ:  cpu time    0.0014: real time    0.0014
    EDDIAG:  cpu time    0.0310: real time    0.0310
  RMM-DIIS:  cpu time    0.1109: real time    0.1109
    ORTHCH:  cpu time    0.0014: real time    0.0014
       DOS:  cpu time    0.0002: real time    0.0002
    --------------------------------------------
      LOOP:  cpu time    0.2628: real time    0.2628

 eigenvalue-minimisations  :    48
 total energy-change (2. order) : 0.1459006E-06  (-0.4569184E-07)
 number of electron       8.0000000 magnetization 
 augmentation part        0.1839425 magnetization 

 Free energy of the ion-electron system (eV)
  ---------------------------------------------------
  alpha Z        PSCENC =         0.23885366
  Ewald energy   TEWEN  =       128.20232476
  -Hartree energ DENC   =      -284.09623512
  -exchange      EXHF   =         0.00000000
  -V(xc)+E(xc)   XCENC  =        24.68830000
  PAW double counting   =       460.26647543     -461.05013067
  entropy T*S    EENTRO =        -0.00000000
  eigenvalues    EBANDS =       -89.30055551
  atomic energy  EATOM  =       197.04175453
  Solvation  Ediel_sol  =         0.00000000
  ---------------------------------------------------
  free energy    TOTEN  =       -24.00921293 eV

  energy without entropy =      -24.00921293  energy(sigma->0) =      -24.00921293


--------------------------------------------------------------------------------------------------------




 average (electrostatic) potential at core
  the test charge radii are     0.5201  0.6991
  (the norm of the test charge is              1.0000)
       1 -41.5449       2 -41.3204       3 -41.6097       4 -41.3921       5 -57.9940
 
 
 
 E-fermi :  -8.2872     XC(G=0):  -0.6952     alpha+bet : -0.2077


 k-point     1 :       0.2500    0.2500    0.2500
  band No.  band energies     occupation 
      1     -16.8496      2.00000
      2      -9.3141      2.00000
      3      -9.2698      2.00000
      4      -9.2168      2.00000
      5      -0.3231      0.00000
      6       0.5524      0.00000
      7       0.6556      0.00000
      8       0.6896      0.00000

 k-point     2 :      -0.2500    0.2500    0.2500
  band No.  band energies     occupation 
      1     -16.8496      2.00000
      2      -9.3140      2.00000
      3      -9.2699      2.00000
      4      -9.2169      2.00000
      5      -0.3240      0.00000
      6       0.5484      0.00000
      7       0.6509      0.00000
      8       0.6995      0.00000

 k-point     3 :       0.2500   -0.2500    0.2500
  band No.  band energies     occupation 
      1     -16.8496      2.00000
      2      -9.3140      2.00000
      3      -9.2698      2.00000
      4      -9.2167      2.00000
      5      -0.3277      0.00000
      6       0.5552      0.00000
      7       0.6661      0.00000
      8       0.7061      0.00000

 k-point     4 :      -0.2500   -0.2500    0.2500
  band No.  band energies     occupation 
      1     -16.8496      2.00000
      2      -9.3141      2.00000
      3      -9.2698      2.00000
      4      -9.2168      2.00000
      5      -0.3222      0.00000
      6       0.5471      0.00000
      7       0.6502      0.00000
      8       0.6928      0.00000


--------------------------------------------------------------------------------------------------------


 soft charge-density along one line, spin component           1
         0         1         2         3         4         5         6         7         8         9
 total charge-density along one line
 
 pseudopotential strength for first ion, spin component:           1
 -2.341  -4.035  -0.001  -0.001   0.001
 -4.035  -6.866  -0.003  -0.004   0.002
 -0.001  -0.003  -0.337   0.002  -0.001
 -0.001  -0.004   0.002  -0.335  -0.001
  0.001   0.002  -0.001  -0.001  -0.338
 total augmentation occupancy for first ion, spin component:           1
  3.567  -0.642   0.235   0.341  -0.141
 -0.642   0.130  -0.044  -0.063   0.026
  0.235  -0.044   0.022   0.019  -0.008
  0.341  -0.063   0.019   0.036  -0.011
 -0.141   0.026  -0.008  -0.011   0.014


------------------------ aborting loop because EDIFF is reached ----------------------------------------


    CHARGE:  cpu time    0.0154: real time    0.0154
    FORLOC:  cpu time    0.0101: real time    0.0101
    FORNL :  cpu time    0.0173: real time    0.0173
    STRESS:  cpu time    0.1388: real time    0.1388
    FORCOR:  cpu time    0.1163: real time    0.1163
    FORHAR:  cpu time    0.0378: real time    0.0378
    MIXING:  cpu time    0.0058: real time    0.0058
    OFIELD:  cpu time    0.0000: real time    0.0000

  FORCE on cell =-STRESS in cart. coord.  units (eV):
  Direction    XX          YY          ZZ          XY          YZ          ZX
  --------------------------------------------------------------------------------------
  Alpha Z     0.23885     0.23885     0.23885
  Ewald      40.74576    44.79253    42.66400     0.05352     0.27767     0.32798
  Hartree    93.08141    96.72845    94.28239    -0.44669    -0.20090     0.39829
  E(xc)     -27.14507   -27.16426   -27.14964    -0.00241    -0.00175     0.00358
  Local    -192.91254  -200.14656  -195.69452     0.63842     0.13901    -0.82397
  n-local   -15.70831   -15.85355   -15.77029    -0.04257    -0.03257     0.02517
  augment     0.12139     0.11524     0.11807    -0.00271    -0.00223     0.00125
  Kinetic   100.35794   101.40505   100.63102     0.14822     0.10598    -0.18269
  Fock        0.00000     0.00000     0.00000     0.00000     0.00000     0.00000
  -------------------------------------------------------------------------------------
  Total      -1.22056     0.11575    -0.68012     0.34578     0.28522    -0.25037
  in kB      -1.92813     0.18285    -1.07439     0.54623     0.45057    -0.39552
  external pressure =       -0.94 kB  Pullay stress =        0.00 kB

  kinetic pressure (ideal gas correction) =      0.00 kB
  total pressure  =     -0.94 kB
  Total+kin.    -1.925       0.184      -1.073       0.546       0.450      -0.395

 VOLUME and BASIS-vectors are now :
 -----------------------------------------------------------------------------
  energy-cutoff  :      400.00
  volume of cell :     1014.22
      direct lattice vectors                 reciprocal lattice vectors
    10.217610125  0.000000000  0.000000000     0.097870244  0.001858506 -0.001374988
    -0.186721769  9.832902890  0.000000000     0.000000000  0.101699367  0.000914714
     0.143548400 -0.090796556 10.094904875     0.000000000  0.000000000  0.099059874

  length of vectors
    10.217610125  9.834675605 10.096333721     0.097897545  0.101703481  0.099059874


 FORCES acting on ions
    electron-ion (+dipol)            ewald-force                    non-local-force                 convergence-correction
 -----------------------------------------------------------------------------------------------
   -.170E+02 0.285E+02 0.413E+02   0.188E+02 -.317E+02 -.458E+02   -.181E+01 0.299E+01 0.436E+01   -.620E-03 -.534E-04 0.566E-03
   0.512E+02 -.598E+01 0.299E+01   -.555E+02 0.647E+01 -.321E+01   0.509E+01 -.605E+00 0.308E+00   0.148E-03 -.342E-03 0.337E-03
   -.239E+02 -.477E+02 0.125E+01   0.266E+02 0.534E+02 -.138E+01   -.258E+01 -.511E+01 0.137E+00   -.639E-03 -.524E-03 0.282E-03
   -.127E+02 0.238E+02 -.446E+02   0.138E+02 -.260E+02 0.487E+02   -.131E+01 0.240E+01 -.452E+01   -.652E-03 -.241E-04 -.168E-03
   0.327E+01 0.179E+01 -.145E+01   -.381E+01 -.208E+01 0.173E+01   -.219E+00 -.676E-01 0.163E+00   -.264E-02 -.146E-02 0.133E-02
 -----------------------------------------------------------------------------------------------
   0.832E+00 0.400E+00 -.449E+00   -.533E-14 0.000E+00 0.000E+00   -.827E+00 -.397E+00 0.447E+00   -.440E-02 -.240E-02 0.234E-02
 
 
 POSITION                                       TOTAL-FORCE (eV/Angst)
 -----------------------------------------------------------------------------------
      5.47404      3.96711      3.64057         0.012910     -0.179431     -0.114265
      4.00918      4.68492      4.42532         0.785869     -0.115454      0.089037
      5.60693      5.52040      4.46539         0.160112      0.505019     -0.001106
[...]
 -----------------------------------------------------------------------------------------------
   -.779E+00 -.379E+00 0.408E+00   0.000E+00 0.355E-14 -.711E-14   0.779E+00 0.379E+00 -.408E+00   0.853E-04 -.214E-04 -.446E-05
 
 
 POSITION                                       TOTAL-FORCE (eV/Angst)
 -----------------------------------------------------------------------------------
      5.47373      3.95620      3.63547        -0.062395      0.076128      0.145271
      4.05294      4.67816      4.43099        -0.706570      0.080526     -0.033712
      5.61369      5.54748      4.46542        -0.211657     -0.383858      0.005538
      5.38362      4.05274      5.41894         0.082682     -0.210147      0.338216
      5.11932      4.55190      4.49305         0.898193      0.437297     -0.455395
 -----------------------------------------------------------------------------------
    total drift:                                0.000253     -0.000055     -0.000082


--------------------------------------------------------------------------------------------------------



  FREE ENERGIE OF THE ION-ELECTRON SYSTEM (eV)
  ---------------------------------------------------
  free  energy   TOTEN  =       -24.01572748 eV

  energy  without entropy=      -24.01572748  energy(sigma->0) =      -24.01572748
 
 d Force =-0.6367579E-02[-0.749E-02,-0.524E-02]  d Energy =-0.6362895E-02-0.468E-05
 d Force =-0.2996062E+00[-0.303E+00,-0.297E+00]  d Ewald  =-0.2996012E+00-0.507E-05


--------------------------------------------------------------------------------------------------------


    POTLOK:  cpu time    0.1170: real time    0.1170


--------------------------------------------------------------------------------------------------------


           RANDOM_SEED =         172212846               30                0
   IONSTEP:  cpu time    0.0001: real time    0.0001

  ENERGY OF THE ELECTRON-ION-THERMOSTAT SYSTEM (eV)
  ---------------------------------------------------
% ion-electron   TOTEN  =       -24.015727  see above
  kinetic energy EKIN   =         0.010239
  kin. lattice  EKIN_LAT=         0.000000  (temperature   19.80 K)
  nose potential ES     =         0.000000
  nose kinetic   EPS    =         0.000000
  ---------------------------------------------------
  total energy   ETOTAL =       -24.005488 eV

  maximum distance moved by ions :      0.41E-03

    WAVPRE:  cpu time    0.0398: real time    0.0398
    FEWALD:  cpu time    0.0006: real time    0.0006
    ORTHCH:  cpu time    0.0080: real time    0.0080
 Prediction of Wavefunctions ALPHA= 2.181 BETA=-1.221
     LOOP+:  cpu time    1.6262: real time    1.6264


--------------------------------------- Iteration     10(   1)  ---------------------------------------


    POTLOK:  cpu time    0.1149: real time    0.1149
    SETDIJ:  cpu time    0.0015: real time    0.0015
     EDDAV:  cpu time    0.1815: real time    0.1816
       DOS:  cpu time    0.0002: real time    0.0002
    CHARGE:  cpu time    0.0150: real time    0.0150
    MIXING:  cpu time    0.0038: real time    0.0038
    --------------------------------------------
      LOOP:  cpu time    0.3169: real time    0.3170

 eigenvalue-minimisations  :    96
 total energy-change (2. order) : 0.5653361E-02  (-0.4881716E-04)
 number of electron       8.0000002 magnetization 
 augmentation part        0.1864836 magnetization 

 Broyden mixing:
  rms(total) = 0.16948E-03    rms(broyden)= 0.16880E-03
  rms(prec ) = 0.19392E-03
  weight for this iteration     100.00

 Free energy of the ion-electron system (eV)
  ---------------------------------------------------
  alpha Z        PSCENC =         0.23885366
  Ewald energy   TEWEN  =       130.35928002
  -Hartree energ DENC   =      -285.98680312
  -exchange      EXHF   =         0.00000000
  -V(xc)+E(xc)   XCENC  =        24.78842748
  PAW double counting   =       473.48582978     -474.27707427
  entropy T*S    EENTRO =        -0.00000000
  eigenvalues    EBANDS =       -89.66034190
  atomic energy  EATOM  =       197.04175453
  Solvation  Ediel_sol  =         0.00000000
  ---------------------------------------------------
  free energy    TOTEN  =       -24.01007382 eV

  energy without entropy =      -24.01007382  energy(sigma->0) =      -24.01007382


--------------------------------------------------------------------------------------------------------




--------------------------------------- Iteration     10(   2)  ---------------------------------------


    POTLOK:  cpu time    0.1133: real time    0.1133
    SETDIJ:  cpu time    0.0016: real time    0.0016
    EDDIAG:  cpu time    0.0307: real time    0.0307
  RMM-DIIS:  cpu time    0.1386: real time    0.1386
    ORTHCH:  cpu time    0.0014: real time    0.0014
       DOS:  cpu time    0.0002: real time    0.0002
    CHARGE:  cpu time    0.0156: real time    0.0156
    MIXING:  cpu time    0.0040: real time    0.0040
    --------------------------------------------
      LOOP:  cpu time    0.3054: real time    0.3054

 eigenvalue-minimisations  :    64
 total energy-change (2. order) :-0.9334617E-06  (-0.6039565E-06)
 number of electron       8.0000002 magnetization 
 augmentation part        0.1864888 magnetization 

 Broyden mixing:
  rms(total) = 0.21646E-03    rms(broyden)= 0.21633E-03
  rms(prec ) = 0.22887E-03
  weight for this iteration     100.00

 eigenvalues of (default mixing * dielectric matrix)
  average eigenvalue GAMMA=   0.2594
  0.2594

 Free energy of the ion-electron system (eV)
  ---------------------------------------------------
  alpha Z        PSCENC =         0.23885366
  Ewald energy   TEWEN  =       130.35928002
  -Hartree energ DENC   =      -285.98762066
  -exchange      EXHF   =         0.00000000
  -V(xc)+E(xc)   XCENC  =        24.78845102
  PAW double counting   =       473.46043182     -474.25166005
  entropy T*S    EENTRO =        -0.00000000
  eigenvalues    EBANDS =       -89.65956510
  atomic energy  EATOM  =       197.04175453
  Solvation  Ediel_sol  =         0.00000000
  ---------------------------------------------------
  free energy    TOTEN  =       -24.01007475 eV

  energy without entropy =      -24.01007475  energy(sigma->0) =      -24.01007475


--------------------------------------------------------------------------------------------------------




--------------------------------------- Iteration     10(   3)  ---------------------------------------


    POTLOK:  cpu time    0.1142: real time    0.1142
    SETDIJ:  cpu time    0.0014: real time    0.0014
    EDDIAG:  cpu time    0.0308: real time    0.0309
  RMM-DIIS:  cpu time    0.1078: real time    0.1078
    ORTHCH:  cpu time    0.0013: real time    0.0013
       DOS:  cpu time    0.0002: real time    0.0002
    CHARGE:  cpu time    0.0155: real time    0.0155
    MIXING:  cpu time    0.0041: real time    0.0041
    --------------------------------------------
      LOOP:  cpu time    0.2753: real time    0.2753

 eigenvalue-minimisations  :    44
 total energy-change (2. order) :-0.3130066E-07  (-0.8548829E-08)
 number of electron       8.0000002 magnetization 
 augmentation part        0.1864889 magnetization 

 Broyden mixing:
  rms(total) = 0.20054E-03    rms(broyden)= 0.20053E-03
  rms(prec ) = 0.21138E-03
  weight for this iteration     100.00

 eigenvalues of (default mixing * dielectric matrix)
  average eigenvalue GAMMA=   1.5764
  1.5764  1.5764

 Free energy of the ion-electron system (eV)
  ---------------------------------------------------
  alpha Z        PSCENC =         0.23885366
  Ewald energy   TEWEN  =       130.35928002
  -Hartree energ DENC   =      -285.98755871
  -exchange      EXHF   =         0.00000000
  -V(xc)+E(xc)   XCENC  =        24.78845028
  PAW double counting   =       473.43852410     -474.22975239
  entropy T*S    EENTRO =        -0.00000000
  eigenvalues    EBANDS =       -89.65962628
  atomic energy  EATOM  =       197.04175453
  Solvation  Ediel_sol  =         0.00000000
  ---------------------------------------------------
  free energy    TOTEN  =       -24.01007478 eV

  energy without entropy =      -24.01007478  energy(sigma->0) =      -24.01007478


--------------------------------------------------------------------------------------------------------




--------------------------------------- Iteration     10(   4)  ---------------------------------------


    POTLOK:  cpu time    0.1147: real time    0.1148
    SETDIJ:  cpu time    0.0015: real time    0.0015
    EDDIAG:  cpu time    0.0308: real time    0.0308
  RMM-DIIS:  cpu time    0.1076: real time    0.1076
    ORTHCH:  cpu time    0.0014: real time    0.0014
       DOS:  cpu time    0.0002: real time    0.0002
    --------------------------------------------
      LOOP:  cpu time    0.2561: real time    0.2561

 eigenvalue-minimisations  :    44
 total energy-change (2. order) :-0.7357062E-06  (-0.5536627E-08)
 number of electron       8.0000002 magnetization 
 augmentation part        0.1864889 magnetization 

 Free energy of the ion-electron system (eV)
  ---------------------------------------------------
  alpha Z        PSCENC =         0.23885366
  Ewald energy   TEWEN  =       130.35928002
  -Hartree energ DENC   =      -285.98705299
  -exchange      EXHF   =         0.00000000
  -V(xc)+E(xc)   XCENC  =        24.78844460
  PAW double counting   =       473.28974266     -474.08097140
  entropy T*S    EENTRO =        -0.00000000
  eigenvalues    EBANDS =       -89.66012661
  atomic energy  EATOM  =       197.04175453
  Solvation  Ediel_sol  =         0.00000000
  ---------------------------------------------------
  free energy    TOTEN  =       -24.01007552 eV

  energy without entropy =      -24.01007552  energy(sigma->0) =      -24.01007552


--------------------------------------------------------------------------------------------------------




 average (electrostatic) potential at core
  the test charge radii are     0.5201  0.6991
  (the norm of the test charge is              1.0000)
       1 -41.4347       2 -41.7047       3 -41.3502       4 -41.6093       5 -57.9392
 
 
 
 E-fermi :  -8.2447     XC(G=0):  -0.6834     alpha+bet : -0.2077


 k-point     1 :       0.2500    0.2500    0.2500
  band No.  band energies     occupation 
      1     -16.9181      2.00000
      2      -9.4128      2.00000
      3      -9.3055      2.00000
      4      -9.1937      2.00000
      5      -0.3070      0.00000
      6       0.5600      0.00000
      7       0.6703      0.00000
      8       0.6954      0.00000

 k-point     2 :      -0.2500    0.2500    0.2500
  band No.  band energies     occupation 
      1     -16.9180      2.00000
      2      -9.4130      2.00000
      3      -9.3056      2.00000
      4      -9.1936      2.00000
      5      -0.3082      0.00000
      6       0.5562      0.00000
      7       0.6634      0.00000
      8       0.7096      0.00000

 k-point     3 :       0.2500   -0.2500    0.2500
  band No.  band energies     occupation 
      1     -16.9180      2.00000
      2      -9.4127      2.00000
      3      -9.3056      2.00000
      4      -9.1935      2.00000
      5      -0.3131      0.00000
      6       0.5717      0.00000
      7       0.6750      0.00000
      8       0.7171      0.00000

 k-point     4 :      -0.2500   -0.2500    0.2500
  band No.  band energies     occupation 
      1     -16.9181      2.00000
      2      -9.4129      2.00000
      3      -9.3056      2.00000
      4      -9.1936      2.00000
      5      -0.3064      0.00000
      6       0.5544      0.00000
      7       0.6655      0.00000
      8       0.7003      0.00000


--------------------------------------------------------------------------------------------------------


 soft charge-density along one line, spin component           1
         0         1         2         3         4         5         6         7         8         9
 total charge-density along one line
 
 pseudopotential strength for first ion, spin component:           1
 -2.340  -4.033  -0.001  -0.001   0.001
 -4.033  -6.863  -0.003  -0.004   0.002
 -0.001  -0.003  -0.338   0.002  -0.001
 -0.001  -0.004   0.002  -0.336  -0.001
  0.001   0.002  -0.001  -0.001  -0.339
 total augmentation occupancy for first ion, spin component:           1
  3.520  -0.634   0.228   0.328  -0.136
 -0.634   0.128  -0.042  -0.061   0.025
  0.228  -0.042   0.021   0.018  -0.007
  0.328  -0.061   0.018   0.034  -0.011
 -0.136   0.025  -0.007  -0.011   0.013


------------------------ aborting loop because EDIFF is reached ----------------------------------------


    CHARGE:  cpu time    0.0151: real time    0.0151
    FORLOC:  cpu time    0.0101: real time    0.0101
    FORNL :  cpu time    0.0172: real time    0.0172
    STRESS:  cpu time    0.1387: real time    0.1387
    FORCOR:  cpu time    0.1189: real time    0.1189
    FORHAR:  cpu time    0.0377: real time    0.0377
    MIXING:  cpu time    0.0047: real time    0.0047
    OFIELD:  cpu time    0.0000: real time    0.0000

  FORCE on cell =-STRESS in cart. coord.  units (eV):
  Direction    XX          YY          ZZ          XY          YZ          ZX
  --------------------------------------------------------------------------------------
  Alpha Z     0.23885     0.23885     0.23885
  Ewald      42.47698    44.81644    43.06582    -1.01764    -0.59012     0.69414
  Hartree    93.11672    98.10664    94.76410    -0.24325    -0.02406     0.18024
  E(xc)     -27.26337   -27.26003   -27.26071     0.00154     0.00168    -0.00065
  Local    -193.75059  -202.21651  -196.46994     0.94198     0.36715    -0.66657
  n-local   -16.06124   -15.94116   -16.00647     0.03571     0.03074    -0.02284
  augment     0.10786     0.11976     0.11343     0.00328     0.00267    -0.00218
  Kinetic   101.54856   101.38061   101.41643    -0.07645    -0.08581     0.03555
  Fock        0.00000     0.00000     0.00000     0.00000     0.00000     0.00000
  -------------------------------------------------------------------------------------
  Total       0.41377    -0.75539    -0.13850    -0.35482    -0.29775     0.21770
  in kB       0.65364    -1.19330    -0.21878    -0.56051    -0.47035     0.34390
  external pressure =       -0.25 kB  Pullay stress =        0.00 kB

  kinetic pressure (ideal gas correction) =      0.01 kB
  total pressure  =     -0.25 kB
  Total+kin.     0.667      -1.187      -0.215      -0.562      -0.471       0.349

 VOLUME and BASIS-vectors are now :
 -----------------------------------------------------------------------------
  energy-cutoff  :      400.00
  volume of cell :     1014.22
      direct lattice vectors                 reciprocal lattice vectors
    10.217610125  0.000000000  0.000000000     0.097870244  0.001858506 -0.001374988
    -0.186721769  9.832902890  0.000000000     0.000000000  0.101699367  0.000914714
     0.143548400 -0.090796556 10.094904875     0.000000000  0.000000000  0.099059874

  length of vectors
    10.217610125  9.834675605 10.096333721     0.097897545  0.101703481  0.099059874


 FORCES acting on ions
    electron-ion (+dipol)            ewald-force                    non-local-force                 convergence-correction
 -----------------------------------------------------------------------------------------------
   -.169E+02 0.285E+02 0.409E+02   0.185E+02 -.313E+02 -.449E+02   -.173E+01 0.291E+01 0.419E+01   0.447E-04 -.222E-04 -.642E-04
   0.536E+02 -.630E+01 0.308E+01   -.603E+02 0.709E+01 -.347E+01   0.584E+01 -.693E+00 0.340E+00   -.218E-04 0.120E-04 -.222E-05
   -.232E+02 -.467E+02 0.129E+01   0.253E+02 0.509E+02 -.141E+01   -.233E+01 -.469E+01 0.131E+00   0.338E-04 0.401E-04 -.122E-04
   -.130E+02 0.247E+02 -.457E+02   0.145E+02 -.276E+02 0.510E+02   -.139E+01 0.263E+01 -.488E+01   0.277E-04 -.223E-04 0.548E-04
   -.154E+01 -.652E+00 0.926E+00   0.204E+01 0.868E+00 -.119E+01   0.541E+00 0.275E+00 -.266E+00   -.240E-04 0.118E-03 -.211E-04
 -----------------------------------------------------------------------------------------------
   -.924E+00 -.440E+00 0.482E+00   0.178E-14 0.000E+00 -.711E-14   0.924E+00 0.439E+00 -.482E+00   0.604E-04 0.126E-03 -.449E-04
 
 
 POSITION                                       TOTAL-FORCE (eV/Angst)
 -----------------------------------------------------------------------------------
      5.47327      3.95465      3.63545        -0.065371      0.099338      0.160566
      4.05697      4.67736      4.43186        -0.862794      0.101207     -0.048533
      5.61358      5.55003      4.46546        -0.233014     -0.451002      0.006384
      5.38181      4.05273      5.41665         0.113712     -0.241794      0.413725
      5.11919      4.55188      4.49316         1.047605      0.492000     -0.532073
 -----------------------------------------------------------------------------------
    total drift:                                0.000138     -0.000251      0.000069


--------------------------------------------------------------------------------------------------------



  FREE ENERGIE OF THE ION-ELECTRON SYSTEM (eV)
  ---------------------------------------------------
  free  energy   TOTEN  =       -24.01007552 eV

  energy  without entropy=      -24.01007552  energy(sigma->0) =      -24.01007552
 
 d Force =-0.5653748E-02[-0.621E-02,-0.509E-02]  d Energy =-0.5651959E-02-0.179E-05
 d Force =-0.2262069E+00[-0.228E+00,-0.225E+00]  d Ewald  =-0.2262052E+00-0.172E-05


--------------------------------------------------------------------------------------------------------


    POTLOK:  cpu time    0.1175: real time    0.1175


--------------------------------------------------------------------------------------------------------


           RANDOM_SEED =         172212846               30                0
   IONSTEP:  cpu time    0.0001: real time    0.0001

  ENERGY OF THE ELECTRON-ION-THERMOSTAT SYSTEM (eV)
  ---------------------------------------------------
% ion-electron   TOTEN  =       -24.010076  see above
  kinetic energy EKIN   =         0.004717
  kin. lattice  EKIN_LAT=         0.000000  (temperature    9.12 K)
  nose potential ES     =         0.000000
  nose kinetic   EPS    =         0.000000
  ---------------------------------------------------
  total energy   ETOTAL =       -24.005358 eV

  maximum distance moved by ions :      0.21E-03


 mean value of Nose-termostat <S>:     1.000 mean value of <T> :    24.410
 mean temperature <T/S>/<1/S>  :    24.410

    WAVPRE:  cpu time    0.0433: real time    0.0433
    FEWALD:  cpu time    0.0005: real time    0.0005
    ORTHCH:  cpu time    0.0079: real time    0.0079
 Prediction of Wavefunctions ALPHA= 2.114 BETA=-1.141
    POTLOK:  cpu time    0.1185: real time    0.1185
    EDDIAG:  cpu time    0.0314: real time    0.0314
     LOOP+:  cpu time    1.8194: real time    1.8195
    4ORBIT:  cpu time    0.0000: real time    0.0006

 total amount of memory used by VASP MPI-rank0    54736. kBytes
=======================================================================

   base      :      30000. kBytes
   nonl-proj :       2737. kBytes
   fftplans  :       7847. kBytes
   grid      :      12367. kBytes
   one-center:          6. kBytes
   wavefun   :       1779. kBytes
 
  
  
 General timing and accounting informations for this job:
 ========================================================
  
                  Total CPU time used (sec):       23.937
                            User time (sec):       22.561
                          System time (sec):        1.376
                         Elapsed time (sec):       24.382
  
                   Maximum memory used (kb):      177740.
                   Average memory used (kb):           0.
  
                          Minor page faults:       245430
                          Major page faults:          126
                 Voluntary context switches:          513
