 vasp.5.4.4.18Apr17-6-g9f103f2a35 (build Jul 09 2021 13:05:15) complex          
  
 executed on             LinuxIFC date 2021.11.04  19:03:09
 running on   16 total cores
 distrk:  each k-point on   16 cores,    1 groups
 distr:  one band on NCORES_PER_BAND=   4 cores,    4 groups


--------------------------------------------------------------------------------------------------------


 INCAR:
 POTCAR:    PAW_PBE H 15Jun2001                   
 POTCAR:    PAW_PBE C 08Apr2002                   
 POTCAR:    PAW_PBE H 15Jun2001                   
   VRHFIN =H: ultrasoft test                                                    
   LEXCH  = PE                                                                  
   EATOM  =    12.4884 eV,    0.9179 Ry                                         
                                                                                
   TITEL  = PAW_PBE H 15Jun2001                                                 
   LULTRA =        F    use ultrasoft PP ?                                      
   IUNSCR =        0    unscreen: 0-lin 1-nonlin 2-no                           
   RPACOR =    0.000    partial core radius                                     
   POMASS =    1.000; ZVAL   =    1.000    mass and valenz                      
   RCORE  =    1.100    outmost cutoff radius                                   
   RWIGS  =    0.700; RWIGS  =    0.370    wigner-seitz radius (au A)           
   ENMAX  =  250.000; ENMIN  =  200.000 eV                                      
   RCLOC  =    0.701    cutoff for local pot                                    
   LCOR   =        T    correct aug charges                                     
   LPAW   =        T    paw PP                                                  
   EAUG   =  400.000                                                            
   RMAX   =    1.123    core radius for proj-oper                               
   RAUG   =    1.200    factor for augmentation sphere                          
   RDEP   =    1.112    radius for radial grids                                 
   RDEPT  =    0.926    core radius for aug-charge                              
                                                                                
   Atomic configuration                                                         
    2 entries                                                                   
     n  l   j            E        occ.                                          
     1  0  0.50        -6.4927   1.0000                                         
     2  1  0.50        -3.4015   0.0000                                         
   Description                                                                  
     l       E           TYP  RCUT    TYP  RCUT                                 
     0     -6.4927494     23  1.100                                             
     0      6.8029130     23  1.100                                             
     1     -4.0817478     23  1.100                                             
  local pseudopotential read in
  atomic valenz-charges read in
  non local Contribution for L=           0  read in
    real space projection operators read in
  non local Contribution for L=           0  read in
    real space projection operators read in
  non local Contribution for L=           1  read in
    real space projection operators read in
    PAW grid and wavefunctions read in
 
   number of l-projection  operators is LMAX  =           3
   number of lm-projection operators is LMMAX =           5
 
 POTCAR:    PAW_PBE C 08Apr2002                   
   VRHFIN =C: s2p2                                                              
   LEXCH  = PE                                                                  
   EATOM  =   147.1560 eV,   10.8157 Ry                                         
                                                                                
   TITEL  = PAW_PBE C 08Apr2002                                                 
   LULTRA =        F    use ultrasoft PP ?                                      
   IUNSCR =        1    unscreen: 0-lin 1-nonlin 2-no                           
   RPACOR =    1.200    partial core radius                                     
   POMASS =   12.011; ZVAL   =    4.000    mass and valenz                      
   RCORE  =    1.500    outmost cutoff radius                                   
   RWIGS  =    1.630; RWIGS  =    0.863    wigner-seitz radius (au A)           
   ENMAX  =  400.000; ENMIN  =  300.000 eV                                      
   ICORE  =        2    local potential                                         
   LCOR   =        T    correct aug charges                                     
   LPAW   =        T    paw PP                                                  
   EAUG   =  644.873                                                            
   DEXC   =    0.000                                                            
   RMAX   =    1.529    core radius for proj-oper                               
   RAUG   =    1.300    factor for augmentation sphere                          
   RDEP   =    1.501    radius for radial grids                                 
   RDEPT  =    1.300    core radius for aug-charge                              
                                                                                
   Atomic configuration                                                         
    4 entries                                                                   
     n  l   j            E        occ.                                          
     1  0  0.50      -273.3789   2.0000                                         
     2  0  0.50       -13.7508   2.0000                                         
     2  1  0.50        -5.2854   2.0000                                         
     3  2  1.50        -5.4423   0.0000                                         
   Description                                                                  
     l       E           TYP  RCUT    TYP  RCUT                                 
     0    -13.7508458     23  1.200                                             
     0     -8.2022199     23  1.200                                             
     1     -5.2854383     23  1.500                                             
     1     34.0145650     23  1.500                                             
     2     -5.4423304      7  1.500                                             
  local pseudopotential read in
  partial core-charges read in
  partial kinetic energy density read in
  atomic valenz-charges read in
  non local Contribution for L=           0  read in
    real space projection operators read in
  non local Contribution for L=           0  read in
    real space projection operators read in
  non local Contribution for L=           1  read in
    real space projection operators read in
  non local Contribution for L=           1  read in
    real space projection operators read in
    PAW grid and wavefunctions read in
 
   number of l-projection  operators is LMAX  =           4
   number of lm-projection operators is LMMAX =           8
 
  PAW_PBE H 15Jun2001                   :
 energy of atom  1       EATOM=  -12.4884
 kinetic energy error for atom=    0.0098 (will be added to EATOM!!)
  PAW_PBE C 08Apr2002                   :
 energy of atom  2       EATOM= -147.1560
 kinetic energy error for atom=    0.0288 (will be added to EATOM!!)
 
 
 POSCAR:  H  C                                   
  positions in cartesian coordinates
  No initial velocities read in
 exchange correlation table for  LEXCH =        8
   RHO(1)=    0.500       N(1)  =     2000
   RHO(2)=  100.500       N(2)  =     4000
 


--------------------------------------------------------------------------------------------------------


 ion  position               nearest neighbor table
   1  0.538  0.407  0.361-   5 1.07
   2  0.394  0.481  0.439-   5 1.07
   3  0.552  0.566  0.442-   5 1.11
   4  0.528  0.416  0.539-   5 1.10
   5  0.503  0.467  0.445-   2 1.07   1 1.07   4 1.10   3 1.11
 

IMPORTANT INFORMATION: All symmetrisations will be switched off!
NOSYMM: (Re-)initialisation of all symmetry stuff for point group C_1.

 
 

Automatic generation of k-mesh.
 generate k-points for:    2    2    2
Space group operators:
 irot       det(A)        alpha          n_x          n_y          n_z        tau_x        tau_y        tau_z
    1     1.000000     0.000000     1.000000     0.000000     0.000000     0.000000     0.000000     0.000000
 
 Subroutine IBZKPT returns following result:
 ===========================================
 
 Found      4 irreducible k-points:
 
 Following reciprocal coordinates:
            Coordinates               Weight
  0.250000  0.250000  0.250000      2.000000
 -0.250000  0.250000  0.250000      2.000000
  0.250000 -0.250000  0.250000      2.000000
 -0.250000 -0.250000  0.250000      2.000000
 
 Following cartesian coordinates:
            Coordinates               Weight
  0.025692  0.024673  0.026039      2.000000
 -0.025692  0.024441  0.026192      2.000000
  0.025692 -0.024441  0.024970      2.000000
 -0.025692 -0.024673  0.025123      2.000000
 


--------------------------------------------------------------------------------------------------------




 Dimension of arrays:
   k-points           NKPTS =      4   k-points in BZ     NKDIM =      4   number of bands    NBANDS=      8
   number of dos      NEDOS =    301   number of ions     NIONS =      5
   non local maximal  LDIM  =      4   non local SUM 2l+1 LMDIM =      8
   total plane-waves  NPLWV = 286720
   max r-space proj   IRMAX =      1   max aug-charges    IRDMAX=   3694
   dimension x,y,z NGX =    64 NGY =   70 NGZ =   64
   dimension x,y,z NGXF=   128 NGYF=  140 NGZF=  128
   support grid    NGXF=   128 NGYF=  140 NGZF=  128
   ions per type =               4   1
   NGX,Y,Z   is equivalent  to a cutoff of  10.93, 11.43, 10.88 a.u.
   NGXF,Y,Z  is equivalent  to a cutoff of  21.87, 22.86, 21.77 a.u.

 SYSTEM =  unknown system                          
 POSCAR =   H  C                                   

 Startparameter for this run:
   NWRITE =      2    write-flag & timer
   PREC   = a         normal or accurate (medium, high low for compatibility)
   ISTART =      0    job   : 0-new  1-cont  2-samecut
   ICHARG =      2    charge: 1-file 2-atom 10-const
   ISPIN  =      1    spin polarized calculation?
   LNONCOLLINEAR =      F non collinear calculations
   LSORBIT =      F    spin-orbit coupling
   INIWAV =      1    electr: 0-lowe 1-rand  2-diag
   LASPH  =      F    aspherical Exc in radial PAW
   METAGGA=      F    non-selfconsistent MetaGGA calc.

 Electronic Relaxation 1
   ENCUT  =  400.0 eV  29.40 Ry    5.42 a.u.  15.87 16.60 15.94*2*pi/ulx,y,z
   ENINI  =  400.0     initial cutoff
   ENAUG  =  644.9 eV  augmentation charge cutoff
   NELM   =    120;   NELMIN=  4; NELMDL= -5     # of ELM steps 
   EDIFF  = 0.1E-05   stopping-criterion for ELM
   LREAL  =      F    real-space projection
   NLSPLINE    = F    spline interpolate recip. space projectors
   LCOMPAT=      F    compatible to vasp.4.4
   GGA_COMPAT  = T    GGA compatible to vasp.4.4-vasp.4.6
   LMAXPAW     = -100 max onsite density
   LMAXMIX     =    2 max onsite mixed and CHGCAR
   VOSKOWN=      0    Vosko Wilk Nusair interpolation
   ROPT   =    0.00000   0.00000
 Ionic relaxation
   EDIFFG = 0.1E-04   stopping-criterion for IOM
   NSW    =     10    number of steps for IOM
   NBLOCK =      1;   KBLOCK =     10    inner block; outer block 
   IBRION =      0    ionic relax: 0-MD 1-quasi-New 2-CG
   NFREE  =      0    steps in history (QN), initial steepest desc. (CG)
   ISIF   =      2    stress and relaxation
   IWAVPR =     12    prediction:  0-non 1-charg 2-wave 3-comb
   ISYM   =      0    0-nonsym 1-usesym 2-fastsym
   LCORR  =      T    Harris-Foulkes like correction to forces

   POTIM  = 0.5000    time-step for ionic-motion
   TEIN   =    0.0    initial temperature
   TEBEG  =    0.0;   TEEND  =   0.0 temperature during run
   SMASS  =  -3.00    Nose mass-parameter (am)
   estimated Nose-frequenzy (Omega)   =  0.10E-29 period in steps =****** mass=  -0.216E-26a.u.
   SCALEE = 1.0000    scale energy and forces
   NPACO  =    256;   APACO  = 16.0  distance and # of slots for P.C.
   PSTRESS=    0.0 pullay stress

  Mass of Ions in am
   POMASS =   1.00 12.01
  Ionic Valenz
   ZVAL   =   1.00  4.00
  Atomic Wigner-Seitz radii
   RWIGS  =  -1.00 -1.00
  virtual crystal weights 
   VCA    =   1.00  1.00
   NELECT =       8.0000    total number of electrons
   NUPDOWN=      -1.0000    fix difference up-down

 DOS related values:
   EMIN   =  10.00;   EMAX   =-10.00  energy-range for DOS
   EFERMI =   0.00
   ISMEAR =     0;   SIGMA  =   0.20  broadening in eV -4-tet -1-fermi 0-gaus

 Electronic relaxation 2 (details)
   IALGO  =     68    algorithm
   LDIAG  =      T    sub-space diagonalisation (order eigenvalues)
   LSUBROT=      F    optimize rotation matrix (better conditioning)
   TURBO    =      0    0=normal 1=particle mesh
   IRESTART =      0    0=no restart 2=restart with 2 vectors
   NREBOOT  =      0    no. of reboots
   NMIN     =      0    reboot dimension
   EREF     =   0.00    reference energy to select bands
   IMIX   =      4    mixing-type and parameters
     AMIX     =   0.40;   BMIX     =  1.00
     AMIX_MAG =   1.60;   BMIX_MAG =  1.00
     AMIN     =   0.10
     WC   =   100.;   INIMIX=   1;  MIXPRE=   1;  MAXMIX= -45

 Intra band minimization:
   WEIMIN = 0.0010     energy-eigenvalue tresh-hold
   EBREAK =  0.31E-07  absolut break condition
   DEPER  =   0.30     relativ break condition  

   TIME   =   0.40     timestep for ELM

  volume/ion in A,a.u.               =     193.62      1306.63
  Fermi-wavevector in a.u.,A,eV,Ry     =   0.330976  0.625454  1.490451  0.109545
  Thomas-Fermi vector in A             =   1.226739
 
 Write flags
   LWAVE        =      F    write WAVECAR
   LDOWNSAMPLE  =      F    k-point downsampling of WAVECAR
   LCHARG       =      F    write CHGCAR
   LVTOT        =      F    write LOCPOT, total local potential
   LVHAR        =      F    write LOCPOT, Hartree potential only
   LELF         =      F    write electronic localiz. function (ELF)
   LORBIT       =      0    0 simple, 1 ext, 2 COOP (PROOUT), +10 PAW based schemes


 Dipole corrections
   LMONO  =      F    monopole corrections only (constant potential shift)
   LDIPOL =      F    correct potential (dipole corrections)
   IDIPOL =      0    1-x, 2-y, 3-z, 4-all directions 
   EPSILON=  1.0000000 bulk dielectric constant

 Exchange correlation treatment:
   GGA     =    --    GGA type
   LEXCH   =     8    internal setting for exchange type
   VOSKOWN=      0    Vosko Wilk Nusair interpolation
   LHFCALC =     F    Hartree Fock is set to
   LHFONE  =     F    Hartree Fock one center treatment
   AEXX    =    0.0000 exact exchange contribution

 Linear response parameters
   LEPSILON=     F    determine dielectric tensor
   LRPA    =     F    only Hartree local field effects (RPA)
   LNABLA  =     F    use nabla operator in PAW spheres
   LVEL    =     F    velocity operator in full k-point grid
   LINTERFAST=   F  fast interpolation
   KINTER  =     0    interpolate to denser k-point grid
   CSHIFT  =0.1000    complex shift for real part using Kramers Kronig
   OMEGAMAX=  -1.0    maximum frequency
   DEG_THRESHOLD= 0.2000000E-02 threshold for treating states as degnerate
   RTIME   =   -0.100 relaxation time in fs
  (WPLASMAI=    0.000 imaginary part of plasma frequency in eV, 0.658/RTIME)
   DFIELD  = 0.0000000 0.0000000 0.0000000 field for delta impulse in time
 
 Orbital magnetization related:
   ORBITALMAG=     F  switch on orbital magnetization
   LCHIMAG   =     F  perturbation theory with respect to B field
   DQ        =  0.001000  dq finite difference perturbation B field
   LLRAUG    =     F  two centre corrections for induced B field



--------------------------------------------------------------------------------------------------------


 molecular dynamics for ions
   using a microcanonical ensemble
 charge density and potential will be updated during run
 non-spin polarized calculation
 RMM-DIIS sequential band-by-band and
  variant of blocked Davidson during initial phase
 perform sub-space diagonalisation
    before iterative eigenvector-optimisation
 modified Broyden-mixing scheme, WC =      100.0
 initial mixing is a Kerker type mixing with AMIX =  0.4000 and BMIX =      1.0000
 Hartree-type preconditioning will be used
 using additional bands            4
 reciprocal scheme for non local part
 use partial core corrections
 calculate Harris-corrections to forces 
   (improved forces if not selfconsistent)
 use gradient corrections 
 use of overlap-Matrix (Vanderbilt PP)
 Gauss-broadening in eV      SIGMA  =   0.20


--------------------------------------------------------------------------------------------------------


  energy-cutoff  :      400.00
  volume of cell :      968.11
      direct lattice vectors                 reciprocal lattice vectors
     9.730577453  0.000000000  0.000000000     0.102768824  0.000465477 -0.000306808
    -0.046110481 10.180345455  0.000000000     0.000000000  0.098228494  0.002137240
     0.030139337 -0.212637516  9.772914448     0.000000000  0.000000000  0.102323622

  length of vectors
     9.730577453 10.180449880  9.775273904     0.102770336  0.098251742  0.102323622


 
 k-points in units of 2pi/SCALE and weight: read from INCAR                         
   0.02569221  0.02467349  0.02603851       0.250
  -0.02569221  0.02444075  0.02619192       0.250
   0.02569221 -0.02444075  0.02496989       0.250
  -0.02569221 -0.02467349  0.02512330       0.250
 
 k-points in reciprocal lattice and weights: read from INCAR                         
   0.25000000  0.25000000  0.25000000       0.250
  -0.25000000  0.25000000  0.25000000       0.250
   0.25000000 -0.25000000  0.25000000       0.250
  -0.25000000 -0.25000000  0.25000000       0.250
 
 position of ions in fractional coordinates (direct lattice) 
   0.53826260  0.40675977  0.36089090
   0.39413533  0.48066490  0.43923377
   0.55226582  0.56606229  0.44233565
   0.52823560  0.41636158  0.53914921
   0.50278588  0.46721390  0.44495354
 
 position of ions in cartesian coordinates  (Angst):
   5.22972708  4.06421606  3.52695587
   3.82623888  4.79993720  4.29259404
   5.36109563  5.66865255  4.32290846
   5.13708840  4.12406138  5.26905909
   4.88426414  4.66178511  4.34849290
 


--------------------------------------------------------------------------------------------------------


 k-point  1 :   0.2500 0.2500 0.2500  plane waves:   17566
 k-point  2 :  -0.2500 0.2500 0.2500  plane waves:   17583
 k-point  3 :   0.2500-0.2500 0.2500  plane waves:   17583
 k-point  4 :  -0.2500-0.2500 0.2500  plane waves:   17579

 maximum and minimum number of plane-waves per node :      4431     4363

 maximum number of plane-waves:     17583
 maximum index in each direction: 
   IXMAX=   16   IYMAX=   16   IZMAX=   15
   IXMIN=  -16   IYMIN=  -16   IZMIN=  -16


 parallel 3D FFT for wavefunctions:
    minimum data exchange during FFTs selected (reduces bandwidth)
 parallel 3D FFT for charge:
    minimum data exchange during FFTs selected (reduces bandwidth)


 total amount of memory used by VASP MPI-rank0    51178. kBytes
=======================================================================

   base      :      30000. kBytes
   nonl-proj :       2602. kBytes
   fftplans  :       7001. kBytes
   grid      :      11005. kBytes
   one-center:          6. kBytes
   wavefun   :        564. kBytes
 
     INWAV:  cpu time    0.0000: real time    0.0001
 Broyden mixing: mesh for mixing (old mesh)
   NGX = 31   NGY = 33   NGZ = 31
  (NGX  =128   NGY  =140   NGZ  =128)
  gives a total of  31713 points

 initial charge density was supplied:
 charge density of overlapping atoms calculated
 number of electron       8.0000000 magnetization 
 keeping initial charge density in first step


--------------------------------------------------------------------------------------------------------


 Maximum index for augmentation-charges          276 (set IRDMAX)


--------------------------------------------------------------------------------------------------------


 First call to EWALD:  gamma=   0.179
 Maximum number of real-space cells 3x 3x 3
 Maximum number of reciprocal cells 3x 3x 3

    FEWALD:  cpu time    0.0019: real time    0.0019


--------------------------------------- Iteration      1(   1)  ---------------------------------------


    POTLOK:  cpu time    0.1320: real time    0.1352
    SETDIJ:  cpu time    0.0020: real time    0.0020
     EDDAV:  cpu time    0.1849: real time    0.1877
       DOS:  cpu time    0.0003: real time    0.0003
    --------------------------------------------
      LOOP:  cpu time    0.3192: real time    0.3252

 eigenvalue-minimisations  :    96
 total energy-change (2. order) : 0.1624364E+02  (-0.1958109E+03)
 number of electron       8.0000000 magnetization 
 augmentation part        8.0000000 magnetization 

 Free energy of the ion-electron system (eV)
  ---------------------------------------------------
  alpha Z        PSCENC =         0.25023035
  Ewald energy   TEWEN  =       129.58714518
  -Hartree energ DENC   =      -243.82173747
  -exchange      EXHF   =         0.00000000
  -V(xc)+E(xc)   XCENC  =        22.06107477
  PAW double counting   =       117.05815612     -117.66307307
  entropy T*S    EENTRO =        -0.00003852
  eigenvalues    EBANDS =       -88.26987505
  atomic energy  EATOM  =       197.04175453
  Solvation  Ediel_sol  =         0.00000000
  ---------------------------------------------------
  free energy    TOTEN  =        16.24363684 eV

  energy without entropy =       16.24367536  energy(sigma->0) =       16.24365610


--------------------------------------------------------------------------------------------------------




--------------------------------------- Iteration      1(   2)  ---------------------------------------


     EDDAV:  cpu time    0.1469: real time    0.1516
       DOS:  cpu time    0.0002: real time    0.0002
    --------------------------------------------
      LOOP:  cpu time    0.1471: real time    0.1518

 eigenvalue-minimisations  :    72
 total energy-change (2. order) :-0.3896540E+02  (-0.3896507E+02)
 number of electron       8.0000000 magnetization 
 augmentation part        8.0000000 magnetization 

 Free energy of the ion-electron system (eV)
  ---------------------------------------------------
  alpha Z        PSCENC =         0.25023035
  Ewald energy   TEWEN  =       129.58714518
  -Hartree energ DENC   =      -243.82173747
  -exchange      EXHF   =         0.00000000
  -V(xc)+E(xc)   XCENC  =        22.06107477
  PAW double counting   =       117.05815612     -117.66307307
  entropy T*S    EENTRO =        -0.00000000
  eigenvalues    EBANDS =      -127.23531844
  atomic energy  EATOM  =       197.04175453
  Solvation  Ediel_sol  =         0.00000000
  ---------------------------------------------------
  free energy    TOTEN  =       -22.72176803 eV

  energy without entropy =      -22.72176803  energy(sigma->0) =      -22.72176803


--------------------------------------------------------------------------------------------------------




--------------------------------------- Iteration      1(   3)  ---------------------------------------


     EDDAV:  cpu time    0.1477: real time    0.1486
       DOS:  cpu time    0.0003: real time    0.0003
    --------------------------------------------
      LOOP:  cpu time    0.1479: real time    0.1489

 eigenvalue-minimisations  :    72
 total energy-change (2. order) :-0.4754281E+01  (-0.4754281E+01)
 number of electron       8.0000000 magnetization 
 augmentation part        8.0000000 magnetization 

 Free energy of the ion-electron system (eV)
  ---------------------------------------------------
  alpha Z        PSCENC =         0.25023035
  Ewald energy   TEWEN  =       129.58714518
  -Hartree energ DENC   =      -243.82173747
  -exchange      EXHF   =         0.00000000
  -V(xc)+E(xc)   XCENC  =        22.06107477
  PAW double counting   =       117.05815612     -117.66307307
  entropy T*S    EENTRO =        -0.00000000
  eigenvalues    EBANDS =      -131.98959987
  atomic energy  EATOM  =       197.04175453
  Solvation  Ediel_sol  =         0.00000000
  ---------------------------------------------------
  free energy    TOTEN  =       -27.47604946 eV

  energy without entropy =      -27.47604946  energy(sigma->0) =      -27.47604946


--------------------------------------------------------------------------------------------------------




--------------------------------------- Iteration      1(   4)  ---------------------------------------


     EDDAV:  cpu time    0.2268: real time    0.2327
       DOS:  cpu time    0.0003: real time    0.0003
    --------------------------------------------
      LOOP:  cpu time    0.2271: real time    0.2330

 eigenvalue-minimisations  :   128
 total energy-change (2. order) :-0.1841797E+00  (-0.1841797E+00)
 number of electron       8.0000000 magnetization 
 augmentation part        8.0000000 magnetization 

 Free energy of the ion-electron system (eV)
  ---------------------------------------------------
  alpha Z        PSCENC =         0.25023035
  Ewald energy   TEWEN  =       129.58714518
  -Hartree energ DENC   =      -243.82173747
  -exchange      EXHF   =         0.00000000
  -V(xc)+E(xc)   XCENC  =        22.06107477
  PAW double counting   =       117.05815612     -117.66307307
  entropy T*S    EENTRO =        -0.00000000
  eigenvalues    EBANDS =      -132.17377960
  atomic energy  EATOM  =       197.04175453
  Solvation  Ediel_sol  =         0.00000000
  ---------------------------------------------------
  free energy    TOTEN  =       -27.66022918 eV

  energy without entropy =      -27.66022918  energy(sigma->0) =      -27.66022918


--------------------------------------------------------------------------------------------------------




--------------------------------------- Iteration      1(   5)  ---------------------------------------


     EDDAV:  cpu time    0.1796: real time    0.1840
       DOS:  cpu time    0.0002: real time    0.0002
    CHARGE:  cpu time    0.0188: real time    0.0189
    MIXING:  cpu time    0.0043: real time    0.0043
    --------------------------------------------
      LOOP:  cpu time    0.2029: real time    0.2074

 eigenvalue-minimisations  :    96
 total energy-change (2. order) :-0.5990775E-04  (-0.5990780E-04)
 number of electron       8.0000002 magnetization 
 augmentation part        0.2288373 magnetization 

 Broyden mixing:
  rms(total) = 0.88986E+00    rms(broyden)= 0.88958E+00
  rms(prec ) = 0.12552E+01
  weight for this iteration     100.00

 Free energy of the ion-electron system (eV)
  ---------------------------------------------------
  alpha Z        PSCENC =         0.25023035
  Ewald energy   TEWEN  =       129.58714518
  -Hartree energ DENC   =      -243.82173747
  -exchange      EXHF   =         0.00000000
  -V(xc)+E(xc)   XCENC  =        22.06107477
  PAW double counting   =       117.05815612     -117.66307307
  entropy T*S    EENTRO =        -0.00000000
  eigenvalues    EBANDS =      -132.17383951
  atomic energy  EATOM  =       197.04175453
  Solvation  Ediel_sol  =         0.00000000
  ---------------------------------------------------
  free energy    TOTEN  =       -27.66028909 eV

  energy without entropy =      -27.66028909  energy(sigma->0) =      -27.66028909


--------------------------------------------------------------------------------------------------------




--------------------------------------- Iteration      1(   6)  ---------------------------------------


    POTLOK:  cpu time    0.1268: real time    0.1276
    SETDIJ:  cpu time    0.0021: real time    0.0021
    EDDIAG:  cpu time    0.0377: real time    0.0414
  RMM-DIIS:  cpu time    0.1433: real time    0.1443
    ORTHCH:  cpu time    0.0022: real time    0.0022
       DOS:  cpu time    0.0002: real time    0.0002
    CHARGE:  cpu time    0.0174: real time    0.0175
    MIXING:  cpu time    0.0044: real time    0.0044
    --------------------------------------------
      LOOP:  cpu time    0.3340: real time    0.3396

 eigenvalue-minimisations  :    64
 total energy-change (2. order) : 0.3009513E+01  (-0.5620385E+00)
 number of electron       8.0000002 magnetization 
 augmentation part        0.2016493 magnetization 

 Broyden mixing:
  rms(total) = 0.43721E+00    rms(broyden)= 0.43709E+00
  rms(prec ) = 0.56616E+00
  weight for this iteration     100.00

 eigenvalues of (default mixing * dielectric matrix)
  average eigenvalue GAMMA=   1.3115
  1.3115

 Free energy of the ion-electron system (eV)
  ---------------------------------------------------
  alpha Z        PSCENC =         0.25023035
  Ewald energy   TEWEN  =       129.58714518
  -Hartree energ DENC   =      -263.93440849
  -exchange      EXHF   =         0.00000000
  -V(xc)+E(xc)   XCENC  =        23.28248842
  PAW double counting   =       241.68431213     -242.46949594
  entropy T*S    EENTRO =        -0.00000000
  eigenvalues    EBANDS =      -110.09280261
  atomic energy  EATOM  =       197.04175453
  Solvation  Ediel_sol  =         0.00000000
  ---------------------------------------------------
  free energy    TOTEN  =       -24.65077643 eV

  energy without entropy =      -24.65077643  energy(sigma->0) =      -24.65077643


--------------------------------------------------------------------------------------------------------




--------------------------------------- Iteration      1(   7)  ---------------------------------------


    POTLOK:  cpu time    0.1258: real time    0.1305
    SETDIJ:  cpu time    0.0019: real time    0.0019
    EDDIAG:  cpu time    0.0350: real time    0.0351
  RMM-DIIS:  cpu time    0.1398: real time    0.1422
    ORTHCH:  cpu time    0.0018: real time    0.0018
       DOS:  cpu time    0.0003: real time    0.0003
    CHARGE:  cpu time    0.0165: real time    0.0166
    MIXING:  cpu time    0.0046: real time    0.0047
    --------------------------------------------
      LOOP:  cpu time    0.3256: real time    0.3330

 eigenvalue-minimisations  :    64
 total energy-change (2. order) : 0.5116981E+00  (-0.1310012E+00)
 number of electron       8.0000002 magnetization 
 augmentation part        0.1907506 magnetization 

 Broyden mixing:
  rms(total) = 0.23153E+00    rms(broyden)= 0.23146E+00
  rms(prec ) = 0.27867E+00
  weight for this iteration     100.00

 eigenvalues of (default mixing * dielectric matrix)
  average eigenvalue GAMMA=   1.8448
  1.4676  2.2220

 Free energy of the ion-electron system (eV)
  ---------------------------------------------------
  alpha Z        PSCENC =         0.25023035
  Ewald energy   TEWEN  =       129.58714518
  -Hartree energ DENC   =      -275.96053866
  -exchange      EXHF   =         0.00000000
  -V(xc)+E(xc)   XCENC  =        24.16217090
  PAW double counting   =       374.02556289     -374.85303301
  entropy T*S    EENTRO =        -0.00000000
  eigenvalues    EBANDS =       -98.39237050
  atomic energy  EATOM  =       197.04175453
  Solvation  Ediel_sol  =         0.00000000
  ---------------------------------------------------
  free energy    TOTEN  =       -24.13907832 eV

  energy without entropy =      -24.13907832  energy(sigma->0) =      -24.13907832


--------------------------------------------------------------------------------------------------------




--------------------------------------- Iteration      1(   8)  ---------------------------------------


    POTLOK:  cpu time    0.1280: real time    0.1287
    SETDIJ:  cpu time    0.0021: real time    0.0021
    EDDIAG:  cpu time    0.0344: real time    0.0348
  RMM-DIIS:  cpu time    0.1426: real time    0.1434
    ORTHCH:  cpu time    0.0019: real time    0.0019
       DOS:  cpu time    0.0002: real time    0.0002
    CHARGE:  cpu time    0.0163: real time    0.0163
    MIXING:  cpu time    0.0045: real time    0.0045
    --------------------------------------------
      LOOP:  cpu time    0.3299: real time    0.3318

 eigenvalue-minimisations  :    64
 total energy-change (2. order) : 0.1477494E+00  (-0.1630121E-01)
 number of electron       8.0000002 magnetization 
 augmentation part        0.1893344 magnetization 

 Broyden mixing:
  rms(total) = 0.22481E-01    rms(broyden)= 0.22451E-01
  rms(prec ) = 0.52624E-01
  weight for this iteration     100.00

 eigenvalues of (default mixing * dielectric matrix)
  average eigenvalue GAMMA=   1.5543
  2.2478  0.9972  1.4180

 Free energy of the ion-electron system (eV)
  ---------------------------------------------------
  alpha Z        PSCENC =         0.25023035
  Ewald energy   TEWEN  =       129.58714518
  -Hartree energ DENC   =      -281.38022084
  -exchange      EXHF   =         0.00000000
  -V(xc)+E(xc)   XCENC  =        24.69958386
  PAW double counting   =       487.53575272     -488.33084010
  entropy T*S    EENTRO =        -0.00000000
  eigenvalues    EBANDS =       -93.39473460
  atomic energy  EATOM  =       197.04175453
  Solvation  Ediel_sol  =         0.00000000
  ---------------------------------------------------
  free energy    TOTEN  =       -23.99132890 eV

  energy without entropy =      -23.99132890  energy(sigma->0) =      -23.99132890


--------------------------------------------------------------------------------------------------------




--------------------------------------- Iteration      1(   9)  ---------------------------------------


    POTLOK:  cpu time    0.1278: real time    0.1288
    SETDIJ:  cpu time    0.0020: real time    0.0020
    EDDIAG:  cpu time    0.0346: real time    0.0348
  RMM-DIIS:  cpu time    0.1418: real time    0.1427
    ORTHCH:  cpu time    0.0015: real time    0.0015
       DOS:  cpu time    0.0002: real time    0.0002
    CHARGE:  cpu time    0.0163: real time    0.0164
    MIXING:  cpu time    0.0047: real time    0.0047
    --------------------------------------------
      LOOP:  cpu time    0.3287: real time    0.3311

 eigenvalue-minimisations  :    64
 total energy-change (2. order) : 0.5660957E-02  (-0.1126471E-02)
 number of electron       8.0000002 magnetization 
 augmentation part        0.1887487 magnetization 

 Broyden mixing:
  rms(total) = 0.19762E-01    rms(broyden)= 0.19757E-01
  rms(prec ) = 0.40510E-01
  weight for this iteration     100.00

 eigenvalues of (default mixing * dielectric matrix)
  average eigenvalue GAMMA=   2.1035
  3.0853  2.9413  1.0026  1.3850

 Free energy of the ion-electron system (eV)
  ---------------------------------------------------
  alpha Z        PSCENC =         0.25023035
  Ewald energy   TEWEN  =       129.58714518
  -Hartree energ DENC   =      -282.65143863
  -exchange      EXHF   =         0.00000000
  -V(xc)+E(xc)   XCENC  =        24.77042238
  PAW double counting   =       491.41149066     -492.20917501
  entropy T*S    EENTRO =        -0.00000000
  eigenvalues    EBANDS =       -92.18609740
  atomic energy  EATOM  =       197.04175453
  Solvation  Ediel_sol  =         0.00000000
  ---------------------------------------------------
  free energy    TOTEN  =       -23.98566794 eV

  energy without entropy =      -23.98566794  energy(sigma->0) =      -23.98566794


--------------------------------------------------------------------------------------------------------




--------------------------------------- Iteration      1(  10)  ---------------------------------------


    POTLOK:  cpu time    0.1228: real time    0.1235
    SETDIJ:  cpu time    0.0020: real time    0.0020
    EDDIAG:  cpu time    0.0348: real time    0.0350
  RMM-DIIS:  cpu time    0.1437: real time    0.1456
    ORTHCH:  cpu time    0.0019: real time    0.0019
       DOS:  cpu time    0.0002: real time    0.0002
    CHARGE:  cpu time    0.0165: real time    0.0168
    MIXING:  cpu time    0.0047: real time    0.0047
    --------------------------------------------
      LOOP:  cpu time    0.3266: real time    0.3297

 eigenvalue-minimisations  :    64
 total energy-change (2. order) : 0.5859399E-02  (-0.2389552E-02)
 number of electron       8.0000002 magnetization 
 augmentation part        0.1877039 magnetization 

 Broyden mixing:
  rms(total) = 0.28135E-01    rms(broyden)= 0.28133E-01
  rms(prec ) = 0.35519E-01
  weight for this iteration     100.00

 eigenvalues of (default mixing * dielectric matrix)
  average eigenvalue GAMMA=   1.7794
  3.0612  2.4465  1.2079  1.2079  0.9734

 Free energy of the ion-electron system (eV)
  ---------------------------------------------------
  alpha Z        PSCENC =         0.25023035
  Ewald energy   TEWEN  =       129.58714518
  -Hartree energ DENC   =      -284.85088793
  -exchange      EXHF   =         0.00000000
  -V(xc)+E(xc)   XCENC  =        24.83961913
  PAW double counting   =       474.83669865     -475.63793784
  entropy T*S    EENTRO =        -0.00000000
  eigenvalues    EBANDS =       -90.04643060
  atomic energy  EATOM  =       197.04175453
  Solvation  Ediel_sol  =         0.00000000
  ---------------------------------------------------
  free energy    TOTEN  =       -23.97980854 eV

  energy without entropy =      -23.97980854  energy(sigma->0) =      -23.97980854


--------------------------------------------------------------------------------------------------------




--------------------------------------- Iteration      1(  11)  ---------------------------------------


    POTLOK:  cpu time    0.1214: real time    0.1235
    SETDIJ:  cpu time    0.0017: real time    0.0017
    EDDIAG:  cpu time    0.0372: real time    0.0374
  RMM-DIIS:  cpu time    0.1462: real time    0.1477
    ORTHCH:  cpu time    0.0015: real time    0.0015
       DOS:  cpu time    0.0002: real time    0.0002
    CHARGE:  cpu time    0.0180: real time    0.0181
    MIXING:  cpu time    0.0048: real time    0.0048
    --------------------------------------------
      LOOP:  cpu time    0.3311: real time    0.3349

 eigenvalue-minimisations  :    64
 total energy-change (2. order) :-0.4857992E-03  (-0.6652376E-03)
 number of electron       8.0000002 magnetization 
 augmentation part        0.1880198 magnetization 

 Broyden mixing:
  rms(total) = 0.66055E-02    rms(broyden)= 0.66018E-02
  rms(prec ) = 0.12849E-01
  weight for this iteration     100.00

 eigenvalues of (default mixing * dielectric matrix)
  average eigenvalue GAMMA=   2.2645
  4.7288  3.1142  2.4301  1.3077  1.0030  1.0030

 Free energy of the ion-electron system (eV)
  ---------------------------------------------------
  alpha Z        PSCENC =         0.25023035
  Ewald energy   TEWEN  =       129.58714518
  -Hartree energ DENC   =      -284.76021275
  -exchange      EXHF   =         0.00000000
  -V(xc)+E(xc)   XCENC  =        24.85399091
  PAW double counting   =       484.11568832     -484.90988198
  entropy T*S    EENTRO =        -0.00000000
  eigenvalues    EBANDS =       -90.15900890
  atomic energy  EATOM  =       197.04175453
  Solvation  Ediel_sol  =         0.00000000
  ---------------------------------------------------
  free energy    TOTEN  =       -23.98029434 eV

  energy without entropy =      -23.98029434  energy(sigma->0) =      -23.98029434


--------------------------------------------------------------------------------------------------------




--------------------------------------- Iteration      1(  12)  ---------------------------------------


    POTLOK:  cpu time    0.1171: real time    0.1177
    SETDIJ:  cpu time    0.0020: real time    0.0020
    EDDIAG:  cpu time    0.0344: real time    0.0347
  RMM-DIIS:  cpu time    0.1422: real time    0.1431
    ORTHCH:  cpu time    0.0027: real time    0.0027
       DOS:  cpu time    0.0002: real time    0.0002
    CHARGE:  cpu time    0.0160: real time    0.0161
    MIXING:  cpu time    0.0050: real time    0.0050
    --------------------------------------------
      LOOP:  cpu time    0.3196: real time    0.3215

 eigenvalue-minimisations  :    64
 total energy-change (2. order) :-0.9854796E-02  (-0.4253796E-03)
 number of electron       8.0000002 magnetization 
 augmentation part        0.1882838 magnetization 

 Broyden mixing:
  rms(total) = 0.12788E-01    rms(broyden)= 0.12786E-01
  rms(prec ) = 0.16611E-01
  weight for this iteration     100.00

 eigenvalues of (default mixing * dielectric matrix)
  average eigenvalue GAMMA=   2.0128
  4.7616  2.9134  2.4346  1.2534  0.9931  0.9931  0.7407

 Free energy of the ion-electron system (eV)
  ---------------------------------------------------
  alpha Z        PSCENC =         0.25023035
  Ewald energy   TEWEN  =       129.58714518
  -Hartree energ DENC   =      -284.94288957
  -exchange      EXHF   =         0.00000000
  -V(xc)+E(xc)   XCENC  =        24.84638111
  PAW double counting   =       481.54313676     -482.33551408
  entropy T*S    EENTRO =        -0.00000000
  eigenvalues    EBANDS =       -89.98039341
  atomic energy  EATOM  =       197.04175453
  Solvation  Ediel_sol  =         0.00000000
  ---------------------------------------------------
  free energy    TOTEN  =       -23.99014913 eV

  energy without entropy =      -23.99014913  energy(sigma->0) =      -23.99014913


--------------------------------------------------------------------------------------------------------




--------------------------------------- Iteration      1(  13)  ---------------------------------------


    POTLOK:  cpu time    0.1161: real time    0.1167
    SETDIJ:  cpu time    0.0020: real time    0.0020
    EDDIAG:  cpu time    0.0341: real time    0.0344
  RMM-DIIS:  cpu time    0.1443: real time    0.1453
    ORTHCH:  cpu time    0.0020: real time    0.0020
       DOS:  cpu time    0.0002: real time    0.0002
    CHARGE:  cpu time    0.0160: real time    0.0162
    MIXING:  cpu time    0.0053: real time    0.0054
    --------------------------------------------
      LOOP:  cpu time    0.3200: real time    0.3222

 eigenvalue-minimisations  :    64
 total energy-change (2. order) :-0.3901088E-03  (-0.8182164E-04)
 number of electron       8.0000002 magnetization 
 augmentation part        0.1880671 magnetization 

 Broyden mixing:
  rms(total) = 0.58498E-02    rms(broyden)= 0.58497E-02
  rms(prec ) = 0.77288E-02
  weight for this iteration     100.00

 eigenvalues of (default mixing * dielectric matrix)
  average eigenvalue GAMMA=   2.3738
  5.9839  3.8856  2.5126  2.2727  1.2302  1.2302  0.9942  0.8808

 Free energy of the ion-electron system (eV)
  ---------------------------------------------------
  alpha Z        PSCENC =         0.25023035
  Ewald energy   TEWEN  =       129.58714518
  -Hartree energ DENC   =      -285.12903073
  -exchange      EXHF   =         0.00000000
  -V(xc)+E(xc)   XCENC  =        24.85206379
  PAW double counting   =       481.38479120     -482.17949763
  entropy T*S    EENTRO =        -0.00000000
  eigenvalues    EBANDS =       -89.79799593
  atomic energy  EATOM  =       197.04175453
  Solvation  Ediel_sol  =         0.00000000
  ---------------------------------------------------
  free energy    TOTEN  =       -23.99053924 eV

  energy without entropy =      -23.99053924  energy(sigma->0) =      -23.99053924


--------------------------------------------------------------------------------------------------------




--------------------------------------- Iteration      1(  14)  ---------------------------------------


    POTLOK:  cpu time    0.1144: real time    0.1152
    SETDIJ:  cpu time    0.0017: real time    0.0017
    EDDIAG:  cpu time    0.0344: real time    0.0346
  RMM-DIIS:  cpu time    0.1452: real time    0.1462
    ORTHCH:  cpu time    0.0017: real time    0.0018
       DOS:  cpu time    0.0002: real time    0.0002
    CHARGE:  cpu time    0.0167: real time    0.0168
    MIXING:  cpu time    0.0054: real time    0.0054
    --------------------------------------------
      LOOP:  cpu time    0.3197: real time    0.3219

 eigenvalue-minimisations  :    64
 total energy-change (2. order) :-0.2818508E-02  (-0.1774313E-03)
 number of electron       8.0000002 magnetization 
 augmentation part        0.1878729 magnetization 

 Broyden mixing:
  rms(total) = 0.38440E-02    rms(broyden)= 0.38416E-02
  rms(prec ) = 0.50312E-02
  weight for this iteration     100.00

 eigenvalues of (default mixing * dielectric matrix)
  average eigenvalue GAMMA=   2.3238
  6.4352  4.0955  2.4296  2.4296  1.2429  1.2429  0.9119  1.0021  1.1245

 Free energy of the ion-electron system (eV)
  ---------------------------------------------------
  alpha Z        PSCENC =         0.25023035
  Ewald energy   TEWEN  =       129.58714518
  -Hartree energ DENC   =      -285.17835265
  -exchange      EXHF   =         0.00000000
  -V(xc)+E(xc)   XCENC  =        24.84424976
  PAW double counting   =       480.53127434     -481.32796951
  entropy T*S    EENTRO =        -0.00000000
  eigenvalues    EBANDS =       -89.74168976
  atomic energy  EATOM  =       197.04175453
  Solvation  Ediel_sol  =         0.00000000
  ---------------------------------------------------
  free energy    TOTEN  =       -23.99335775 eV

  energy without entropy =      -23.99335775  energy(sigma->0) =      -23.99335775


--------------------------------------------------------------------------------------------------------




--------------------------------------- Iteration      1(  15)  ---------------------------------------


    POTLOK:  cpu time    0.1162: real time    0.1169
    SETDIJ:  cpu time    0.0021: real time    0.0021
    EDDIAG:  cpu time    0.0345: real time    0.0347
  RMM-DIIS:  cpu time    0.1426: real time    0.1442
    ORTHCH:  cpu time    0.0016: real time    0.0024
       DOS:  cpu time    0.0002: real time    0.0002
    CHARGE:  cpu time    0.0160: real time    0.0163
    MIXING:  cpu time    0.0056: real time    0.0056
    --------------------------------------------
      LOOP:  cpu time    0.3187: real time    0.3224

 eigenvalue-minimisations  :    64
 total energy-change (2. order) :-0.2519113E-03  (-0.1313678E-04)
 number of electron       8.0000002 magnetization 
 augmentation part        0.1878861 magnetization 

 Broyden mixing:
  rms(total) = 0.12018E-02    rms(broyden)= 0.12017E-02
  rms(prec ) = 0.15737E-02
  weight for this iteration     100.00

 eigenvalues of (default mixing * dielectric matrix)
  average eigenvalue GAMMA=   2.5438
  7.4936  4.8883  3.0118  2.5302  2.0328  1.2953  1.2953  0.9981  0.9981  0.8947

 Free energy of the ion-electron system (eV)
  ---------------------------------------------------
  alpha Z        PSCENC =         0.25023035
  Ewald energy   TEWEN  =       129.58714518
  -Hartree energ DENC   =      -285.10116700
  -exchange      EXHF   =         0.00000000
  -V(xc)+E(xc)   XCENC  =        24.84081790
  PAW double counting   =       480.61822449     -481.41380128
  entropy T*S    EENTRO =        -0.00000000
  eigenvalues    EBANDS =       -89.81681383
  atomic energy  EATOM  =       197.04175453
  Solvation  Ediel_sol  =         0.00000000
  ---------------------------------------------------
  free energy    TOTEN  =       -23.99360966 eV

  energy without entropy =      -23.99360966  energy(sigma->0) =      -23.99360966


--------------------------------------------------------------------------------------------------------




--------------------------------------- Iteration      1(  16)  ---------------------------------------


    POTLOK:  cpu time    0.1155: real time    0.1162
    SETDIJ:  cpu time    0.0020: real time    0.0020
    EDDIAG:  cpu time    0.0342: real time    0.0343
  RMM-DIIS:  cpu time    0.1413: real time    0.1428
    ORTHCH:  cpu time    0.0019: real time    0.0019
       DOS:  cpu time    0.0002: real time    0.0002
    CHARGE:  cpu time    0.0160: real time    0.0161
    MIXING:  cpu time    0.0057: real time    0.0057
    --------------------------------------------
      LOOP:  cpu time    0.3168: real time    0.3192

 eigenvalue-minimisations  :    64
 total energy-change (2. order) :-0.2046123E-03  (-0.8645060E-05)
 number of electron       8.0000002 magnetization 
 augmentation part        0.1879336 magnetization 

 Broyden mixing:
  rms(total) = 0.90652E-03    rms(broyden)= 0.90602E-03
  rms(prec ) = 0.12225E-02
  weight for this iteration     100.00

 eigenvalues of (default mixing * dielectric matrix)
  average eigenvalue GAMMA=   2.4564
  7.5945  4.7681  3.3653  2.3894  2.2246  1.3188  1.3188  1.0875  1.0875  0.9328
  0.9328

 Free energy of the ion-electron system (eV)
  ---------------------------------------------------
  alpha Z        PSCENC =         0.25023035
  Ewald energy   TEWEN  =       129.58714518
  -Hartree energ DENC   =      -285.08929484
  -exchange      EXHF   =         0.00000000
  -V(xc)+E(xc)   XCENC  =        24.84101886
  PAW double counting   =       480.68046413     -481.47560329
  entropy T*S    EENTRO =        -0.00000000
  eigenvalues    EBANDS =       -89.82952919
  atomic energy  EATOM  =       197.04175453
  Solvation  Ediel_sol  =         0.00000000
  ---------------------------------------------------
  free energy    TOTEN  =       -23.99381428 eV

  energy without entropy =      -23.99381428  energy(sigma->0) =      -23.99381428


--------------------------------------------------------------------------------------------------------




--------------------------------------- Iteration      1(  17)  ---------------------------------------


    POTLOK:  cpu time    0.1157: real time    0.1165
    SETDIJ:  cpu time    0.0018: real time    0.0018
    EDDIAG:  cpu time    0.0339: real time    0.0342
  RMM-DIIS:  cpu time    0.1431: real time    0.1440
    ORTHCH:  cpu time    0.0016: real time    0.0016
       DOS:  cpu time    0.0002: real time    0.0002
    CHARGE:  cpu time    0.0160: real time    0.0161
    MIXING:  cpu time    0.0057: real time    0.0057
    --------------------------------------------
      LOOP:  cpu time    0.3179: real time    0.3201

 eigenvalue-minimisations  :    64
 total energy-change (2. order) :-0.2662776E-04  (-0.3228641E-05)
 number of electron       8.0000002 magnetization 
 augmentation part        0.1878952 magnetization 

 Broyden mixing:
  rms(total) = 0.38131E-03    rms(broyden)= 0.38122E-03
  rms(prec ) = 0.55572E-03
  weight for this iteration     100.00

 eigenvalues of (default mixing * dielectric matrix)
  average eigenvalue GAMMA=   2.5701
  8.3198  5.1680  3.9440  2.5370  2.5370  1.9169  1.3077  1.3077  1.0229  0.9476
  0.9476  0.8848

 Free energy of the ion-electron system (eV)
  ---------------------------------------------------
  alpha Z        PSCENC =         0.25023035
  Ewald energy   TEWEN  =       129.58714518
  -Hartree energ DENC   =      -285.13706582
  -exchange      EXHF   =         0.00000000
  -V(xc)+E(xc)   XCENC  =        24.84337130
  PAW double counting   =       480.69149590     -481.48704575
  entropy T*S    EENTRO =        -0.00000000
  eigenvalues    EBANDS =       -89.78372660
  atomic energy  EATOM  =       197.04175453
  Solvation  Ediel_sol  =         0.00000000
  ---------------------------------------------------
  free energy    TOTEN  =       -23.99384090 eV

  energy without entropy =      -23.99384090  energy(sigma->0) =      -23.99384090


--------------------------------------------------------------------------------------------------------




--------------------------------------- Iteration      1(  18)  ---------------------------------------


    POTLOK:  cpu time    0.1189: real time    0.1196
    SETDIJ:  cpu time    0.0019: real time    0.0019
    EDDIAG:  cpu time    0.0342: real time    0.0346
  RMM-DIIS:  cpu time    0.1285: real time    0.1299
    ORTHCH:  cpu time    0.0020: real time    0.0020
       DOS:  cpu time    0.0002: real time    0.0002
    CHARGE:  cpu time    0.0161: real time    0.0161
    MIXING:  cpu time    0.0059: real time    0.0059
    --------------------------------------------
      LOOP:  cpu time    0.3077: real time    0.3102

 eigenvalue-minimisations  :    60
 total energy-change (2. order) :-0.1231728E-04  (-0.2788107E-06)
 number of electron       8.0000002 magnetization 
 augmentation part        0.1879042 magnetization 

 Broyden mixing:
  rms(total) = 0.62517E-04    rms(broyden)= 0.62512E-04
  rms(prec ) = 0.96869E-04
  weight for this iteration     100.00

 eigenvalues of (default mixing * dielectric matrix)
  average eigenvalue GAMMA=   2.5944
  8.3503  5.4326  3.7191  3.4054  2.4175  2.2472  1.6505  1.3006  1.3006  1.0485
  0.9820  0.9820  0.8912

 Free energy of the ion-electron system (eV)
  ---------------------------------------------------
  alpha Z        PSCENC =         0.25023035
  Ewald energy   TEWEN  =       129.58714518
  -Hartree energ DENC   =      -285.12001428
  -exchange      EXHF   =         0.00000000
  -V(xc)+E(xc)   XCENC  =        24.84244061
  PAW double counting   =       480.62230668     -481.41771441
  entropy T*S    EENTRO =        -0.00000000
  eigenvalues    EBANDS =       -89.80000188
  atomic energy  EATOM  =       197.04175453
  Solvation  Ediel_sol  =         0.00000000
  ---------------------------------------------------
  free energy    TOTEN  =       -23.99385322 eV

  energy without entropy =      -23.99385322  energy(sigma->0) =      -23.99385322


--------------------------------------------------------------------------------------------------------




--------------------------------------- Iteration      1(  19)  ---------------------------------------


    POTLOK:  cpu time    0.1222: real time    0.1230
    SETDIJ:  cpu time    0.0019: real time    0.0019
    EDDIAG:  cpu time    0.0341: real time    0.0343
  RMM-DIIS:  cpu time    0.1147: real time    0.1155
    ORTHCH:  cpu time    0.0018: real time    0.0018
       DOS:  cpu time    0.0002: real time    0.0002
    CHARGE:  cpu time    0.0159: real time    0.0160
    MIXING:  cpu time    0.0063: real time    0.0063
    --------------------------------------------
      LOOP:  cpu time    0.2971: real time    0.2991

 eigenvalue-minimisations  :    48
 total energy-change (2. order) :-0.3139936E-05  (-0.1676800E-07)
 number of electron       8.0000002 magnetization 
 augmentation part        0.1879065 magnetization 

 Broyden mixing:
  rms(total) = 0.16778E-04    rms(broyden)= 0.16756E-04
  rms(prec ) = 0.41176E-04
  weight for this iteration     100.00

 eigenvalues of (default mixing * dielectric matrix)
  average eigenvalue GAMMA=   2.5557
  8.4062  5.5269  4.0279  3.4860  2.4746  2.4746  1.9734  1.2991  1.2991  1.0209
  0.8991  0.9708  0.9606  0.9606

 Free energy of the ion-electron system (eV)
  ---------------------------------------------------
  alpha Z        PSCENC =         0.25023035
  Ewald energy   TEWEN  =       129.58714518
  -Hartree energ DENC   =      -285.11779321
  -exchange      EXHF   =         0.00000000
  -V(xc)+E(xc)   XCENC  =        24.84221911
  PAW double counting   =       480.61197322     -481.40738788
  entropy T*S    EENTRO =        -0.00000000
  eigenvalues    EBANDS =       -89.80199766
  atomic energy  EATOM  =       197.04175453
  Solvation  Ediel_sol  =         0.00000000
  ---------------------------------------------------
  free energy    TOTEN  =       -23.99385636 eV

  energy without entropy =      -23.99385636  energy(sigma->0) =      -23.99385636


--------------------------------------------------------------------------------------------------------




--------------------------------------- Iteration      1(  20)  ---------------------------------------


    POTLOK:  cpu time    0.1209: real time    0.1217
    SETDIJ:  cpu time    0.0017: real time    0.0017
    EDDIAG:  cpu time    0.0344: real time    0.0346
  RMM-DIIS:  cpu time    0.0983: real time    0.0988
    ORTHCH:  cpu time    0.0019: real time    0.0019
       DOS:  cpu time    0.0002: real time    0.0002
    --------------------------------------------
      LOOP:  cpu time    0.2573: real time    0.2588

 eigenvalue-minimisations  :    33
 total energy-change (2. order) :-0.9237628E-06  (-0.4917373E-09)
 number of electron       8.0000002 magnetization 
 augmentation part        0.1879065 magnetization 

 Free energy of the ion-electron system (eV)
  ---------------------------------------------------
  alpha Z        PSCENC =         0.25023035
  Ewald energy   TEWEN  =       129.58714518
  -Hartree energ DENC   =      -285.11810408
  -exchange      EXHF   =         0.00000000
  -V(xc)+E(xc)   XCENC  =        24.84220916
  PAW double counting   =       480.61737082     -481.41279021
  entropy T*S    EENTRO =        -0.00000000
  eigenvalues    EBANDS =       -89.80167303
  atomic energy  EATOM  =       197.04175453
  Solvation  Ediel_sol  =         0.00000000
  ---------------------------------------------------
  free energy    TOTEN  =       -23.99385728 eV

  energy without entropy =      -23.99385728  energy(sigma->0) =      -23.99385728


--------------------------------------------------------------------------------------------------------




 average (electrostatic) potential at core
  the test charge radii are     0.5201  0.6991
  (the norm of the test charge is              1.0000)
       1 -41.6695       2 -41.7071       3 -41.3541       4 -41.4839       5 -57.9040
 
 
 
 E-fermi :  -8.2595     XC(G=0):  -0.7190     alpha+bet : -0.2176


 k-point     1 :       0.2500    0.2500    0.2500
  band No.  band energies     occupation 
      1     -16.9528      2.00000
      2      -9.5033      2.00000
      3      -9.2545      2.00000
      4      -9.1899      2.00000
      5      -0.2992      0.00000
      6       0.5711      0.00000
      7       0.6839      0.00000
      8       0.7117      0.00000

 k-point     2 :      -0.2500    0.2500    0.2500
  band No.  band energies     occupation 
      1     -16.9528      2.00000
      2      -9.5034      2.00000
      3      -9.2545      2.00000
      4      -9.1901      2.00000
      5      -0.3002      0.00000
      6       0.5700      0.00000
      7       0.6825      0.00000
      8       0.7167      0.00000

 k-point     3 :       0.2500   -0.2500    0.2500
  band No.  band energies     occupation 
      1     -16.9528      2.00000
      2      -9.5035      2.00000
      3      -9.2546      2.00000
      4      -9.1901      2.00000
      5      -0.3047      0.00000
      6       0.5798      0.00000
      7       0.7001      0.00000
      8       0.7225      0.00000

 k-point     4 :      -0.2500   -0.2500    0.2500
  band No.  band energies     occupation 
      1     -16.9529      2.00000
      2      -9.5034      2.00000
      3      -9.2546      2.00000
      4      -9.1901      2.00000
      5      -0.3027      0.00000
      6       0.5801      0.00000
      7       0.6898      0.00000
      8       0.7215      0.00000


--------------------------------------------------------------------------------------------------------


 soft charge-density along one line, spin component           1
         0         1         2         3         4         5         6         7         8         9
 total charge-density along one line
 
 pseudopotential strength for first ion, spin component:           1
 -2.342  -4.037  -0.001  -0.001   0.001
 -4.037  -6.870  -0.003  -0.005   0.002
 -0.001  -0.003  -0.336   0.002  -0.001
 -0.001  -0.005   0.002  -0.334  -0.001
  0.001   0.002  -0.001  -0.001  -0.337
 total augmentation occupancy for first ion, spin component:           1
  3.632  -0.650   0.257   0.351  -0.148
 -0.650   0.131  -0.047  -0.065   0.027
  0.257  -0.047   0.025   0.021  -0.009
  0.351  -0.065   0.021   0.038  -0.012
 -0.148   0.027  -0.009  -0.012   0.015


------------------------ aborting loop because EDIFF is reached ----------------------------------------


    CHARGE:  cpu time    0.0160: real time    0.0160
    FORLOC:  cpu time    0.0131: real time    0.0131
    FORNL :  cpu time    0.0213: real time    0.0214
    STRESS:  cpu time    0.1620: real time    0.1626
    FORCOR:  cpu time    0.1590: real time    0.1597
    FORHAR:  cpu time    0.0390: real time    0.0391
    MIXING:  cpu time    0.0058: real time    0.0058
    OFIELD:  cpu time    0.0000: real time    0.0000

  FORCE on cell =-STRESS in cart. coord.  units (eV):
  Direction    XX          YY          ZZ          XY          YZ          ZX
  --------------------------------------------------------------------------------------
  Alpha Z     0.25023     0.25023     0.25023
  Ewald      45.22897    41.75093    42.60726    -2.75829    -0.74644    -0.77430
  Hartree    96.67793    92.56319    95.87745    -0.44497    -0.73148    -0.08370
  E(xc)     -27.32755   -27.29867   -27.33204    -0.00756    -0.00704    -0.00243
  Local    -200.25481  -192.91092  -197.45458     2.44974     1.61342     0.63495
  n-local   -16.19134   -16.04716   -16.14821     0.05605    -0.03967     0.01424
  augment     0.10707     0.11256     0.11304     0.00691    -0.00226     0.00204
  Kinetic   102.21696   100.75069   102.45014     0.33617     0.34627     0.10879
  Fock        0.00000     0.00000     0.00000     0.00000     0.00000     0.00000
  -------------------------------------------------------------------------------------
  Total       0.70746    -0.82916     0.36327    -0.36195     0.43280    -0.10041
  in kB       1.17081    -1.37223     0.60119    -0.59901     0.71627    -0.16617
  external pressure =        0.13 kB  Pullay stress =        0.00 kB

  kinetic pressure (ideal gas correction) =      0.00 kB
  total pressure  =      0.13 kB
  Total+kin.     1.171      -1.372       0.601      -0.599       0.716      -0.166

 VOLUME and BASIS-vectors are now :
 -----------------------------------------------------------------------------
  energy-cutoff  :      400.00
  volume of cell :      968.11
      direct lattice vectors                 reciprocal lattice vectors
     9.730577453  0.000000000  0.000000000     0.102768824  0.000465477 -0.000306808
    -0.046110481 10.180345455  0.000000000     0.000000000  0.098228494  0.002137240
     0.030139337 -0.212637516  9.772914448     0.000000000  0.000000000  0.102323622

  length of vectors
     9.730577453 10.180449880  9.775273904     0.102770336  0.098251742  0.102323622


 FORCES acting on ions
    electron-ion (+dipol)            ewald-force                    non-local-force                 convergence-correction
 -----------------------------------------------------------------------------------------------
   -.174E+02 0.301E+02 0.414E+02   0.196E+02 -.337E+02 -.466E+02   -.190E+01 0.329E+01 0.446E+01   -.159E-05 -.738E-05 0.855E-05
   0.537E+02 -.707E+01 0.283E+01   -.605E+02 0.789E+01 -.321E+01   0.587E+01 -.793E+00 0.303E+00   0.142E-04 0.260E-05 0.263E-05
   -.223E+02 -.472E+02 0.118E+01   0.245E+02 0.514E+02 -.123E+01   -.221E+01 -.475E+01 0.133E+00   -.494E-05 0.747E-05 0.562E-05
   -.123E+02 0.260E+02 -.446E+02   0.136E+02 -.286E+02 0.493E+02   -.127E+01 0.274E+01 -.460E+01   -.622E-06 0.536E-06 -.119E-04
   -.242E+01 -.252E+01 -.138E+01   0.292E+01 0.299E+01 0.171E+01   0.323E+00 0.233E+00 0.260E+00   0.305E-04 0.194E-04 0.193E-04
 -----------------------------------------------------------------------------------------------
   -.813E+00 -.718E+00 -.551E+00   0.533E-14 0.711E-14 0.000E+00   0.813E+00 0.718E+00 0.551E+00   0.376E-04 0.227E-04 0.242E-04
 
 
 POSITION                                       TOTAL-FORCE (eV/Angst)
 -----------------------------------------------------------------------------------
      5.22973      4.06422      3.52696         0.225430     -0.333329     -0.748635
      3.82624      4.79994      4.29259        -1.002591      0.025588     -0.075208
      5.36110      5.66865      4.32291        -0.077679     -0.558241      0.082905
      5.13709      4.12406      5.26906         0.028793      0.164215      0.153436
      4.88426      4.66179      4.34849         0.825266      0.701195      0.587755
 -----------------------------------------------------------------------------------
    total drift:                               -0.000781     -0.000572      0.000253


--------------------------------------------------------------------------------------------------------



  FREE ENERGIE OF THE ION-ELECTRON SYSTEM (eV)
  ---------------------------------------------------
  free  energy   TOTEN  =       -23.99385728 eV

  energy  without entropy=      -23.99385728  energy(sigma->0) =      -23.99385728
 


--------------------------------------------------------------------------------------------------------


    POTLOK:  cpu time    0.1270: real time    0.1276


--------------------------------------------------------------------------------------------------------


           RANDOM_SEED =         172269301                0                0
           RANDOM_SEED =         172269301               30                0
   IONSTEP:  cpu time    0.0029: real time    0.0029

  ENERGY OF THE ELECTRON-ION-THERMOSTAT SYSTEM (eV)
  ---------------------------------------------------
% ion-electron   TOTEN  =       -23.993857  see above
  kinetic energy EKIN   =         0.000676
  kin. lattice  EKIN_LAT=         0.000000  (temperature    1.31 K)
  nose potential ES     =         0.000000
  nose kinetic   EPS    =         0.000000
  ---------------------------------------------------
  total energy   ETOTAL =       -23.993181 eV

  maximum distance moved by ions :      0.25E-03

    WAVPRE:  cpu time    0.0382: real time    0.0387
    FEWALD:  cpu time    0.0005: real time    0.0005
    ORTHCH:  cpu time    0.0089: real time    0.0089
     LOOP+:  cpu time    6.3933: real time    6.4629


--------------------------------------- Iteration      2(   1)  ---------------------------------------


    POTLOK:  cpu time    0.1233: real time    0.1242
    SETDIJ:  cpu time    0.0017: real time    0.0017
     EDDAV:  cpu time    0.1349: real time    0.1359
       DOS:  cpu time    0.0002: real time    0.0002
    CHARGE:  cpu time    0.0160: real time    0.0161
    MIXING:  cpu time    0.0056: real time    0.0056
    --------------------------------------------
      LOOP:  cpu time    0.2818: real time    0.2838

 eigenvalue-minimisations  :    64
 total energy-change (2. order) :-0.5175730E-02  (-0.5907451E-03)
 number of electron       8.0000001 magnetization 
 augmentation part        0.1876047 magnetization 

 Broyden mixing:
  rms(total) = 0.36450E-02    rms(broyden)= 0.36418E-02
  rms(prec ) = 0.44214E-02
  weight for this iteration     100.00

 Free energy of the ion-electron system (eV)
  ---------------------------------------------------
  alpha Z        PSCENC =         0.25023035
  Ewald energy   TEWEN  =       129.38328035
  -Hartree energ DENC   =      -285.00562093
  -exchange      EXHF   =         0.00000000
  -V(xc)+E(xc)   XCENC  =        24.83644743
  PAW double counting   =       480.62488474     -481.42029062
  entropy T*S    EENTRO =        -0.00000000
  eigenvalues    EBANDS =       -89.70971793
  atomic energy  EATOM  =       197.04175453
  Solvation  Ediel_sol  =         0.00000000
  ---------------------------------------------------
  free energy    TOTEN  =       -23.99903209 eV

  energy without entropy =      -23.99903209  energy(sigma->0) =      -23.99903209


--------------------------------------------------------------------------------------------------------




--------------------------------------- Iteration      2(   2)  ---------------------------------------


    POTLOK:  cpu time    0.1234: real time    0.1242
    SETDIJ:  cpu time    0.0019: real time    0.0018
    EDDIAG:  cpu time    0.0343: real time    0.0344
  RMM-DIIS:  cpu time    0.1446: real time    0.1458
    ORTHCH:  cpu time    0.0018: real time    0.0018
       DOS:  cpu time    0.0002: real time    0.0002
    CHARGE:  cpu time    0.0163: real time    0.0163
    MIXING:  cpu time    0.0045: real time    0.0045
    --------------------------------------------
      LOOP:  cpu time    0.3270: real time    0.3291

 eigenvalue-minimisations  :    64
 total energy-change (2. order) : 0.1416045E-04  (-0.1642079E-04)
 number of electron       8.0000001 magnetization 
 augmentation part        0.1876191 magnetization 

 Broyden mixing:
  rms(total) = 0.21392E-02    rms(broyden)= 0.21384E-02
  rms(prec ) = 0.25199E-02
  weight for this iteration     100.00

 eigenvalues of (default mixing * dielectric matrix)
  average eigenvalue GAMMA=   1.9271
  1.9271

 Free energy of the ion-electron system (eV)
  ---------------------------------------------------
  alpha Z        PSCENC =         0.25023035
  Ewald energy   TEWEN  =       129.38328035
  -Hartree energ DENC   =      -284.96581406
  -exchange      EXHF   =         0.00000000
  -V(xc)+E(xc)   XCENC  =        24.83423889
  PAW double counting   =       479.97882203     -480.77376649
  entropy T*S    EENTRO =        -0.00000000
  eigenvalues    EBANDS =       -89.74776353
  atomic energy  EATOM  =       197.04175453
  Solvation  Ediel_sol  =         0.00000000
  ---------------------------------------------------
  free energy    TOTEN  =       -23.99901793 eV

  energy without entropy =      -23.99901793  energy(sigma->0) =      -23.99901793


--------------------------------------------------------------------------------------------------------




--------------------------------------- Iteration      2(   3)  ---------------------------------------


    POTLOK:  cpu time    0.1211: real time    0.1217
    SETDIJ:  cpu time    0.0019: real time    0.0019
    EDDIAG:  cpu time    0.0369: real time    0.0372
  RMM-DIIS:  cpu time    0.1446: real time    0.1455
    ORTHCH:  cpu time    0.0017: real time    0.0017
       DOS:  cpu time    0.0002: real time    0.0002
    CHARGE:  cpu time    0.0162: real time    0.0163
    MIXING:  cpu time    0.0043: real time    0.0043
    --------------------------------------------
      LOOP:  cpu time    0.3268: real time    0.3288

 eigenvalue-minimisations  :    64
 total energy-change (2. order) : 0.2920513E-05  (-0.5101397E-05)
 number of electron       8.0000001 magnetization 
 augmentation part        0.1876661 magnetization 

 Broyden mixing:
  rms(total) = 0.64071E-03    rms(broyden)= 0.64001E-03
  rms(prec ) = 0.79140E-03
  weight for this iteration     100.00

 eigenvalues of (default mixing * dielectric matrix)
  average eigenvalue GAMMA=   1.5179
  1.1051  1.9307

 Free energy of the ion-electron system (eV)
  ---------------------------------------------------
  alpha Z        PSCENC =         0.25023035
  Ewald energy   TEWEN  =       129.38328035
  -Hartree energ DENC   =      -284.93520518
  -exchange      EXHF   =         0.00000000
  -V(xc)+E(xc)   XCENC  =        24.83252762
  PAW double counting   =       479.41134504     -480.20585843
  entropy T*S    EENTRO =        -0.00000000
  eigenvalues    EBANDS =       -89.77708928
  atomic energy  EATOM  =       197.04175453
  Solvation  Ediel_sol  =         0.00000000
  ---------------------------------------------------
  free energy    TOTEN  =       -23.99901501 eV

  energy without entropy =      -23.99901501  energy(sigma->0) =      -23.99901501


--------------------------------------------------------------------------------------------------------




--------------------------------------- Iteration      2(   4)  ---------------------------------------


    POTLOK:  cpu time    0.1236: real time    0.1244
    SETDIJ:  cpu time    0.0021: real time    0.0021
    EDDIAG:  cpu time    0.0346: real time    0.0349
  RMM-DIIS:  cpu time    0.1171: real time    0.1179
    ORTHCH:  cpu time    0.0015: real time    0.0015
       DOS:  cpu time    0.0002: real time    0.0002
    --------------------------------------------
      LOOP:  cpu time    0.2791: real time    0.2809

 eigenvalue-minimisations  :    48
 total energy-change (2. order) : 0.6661484E-06  (-0.1422947E-06)
 number of electron       8.0000001 magnetization 
 augmentation part        0.1876661 magnetization 

 Free energy of the ion-electron system (eV)
  ---------------------------------------------------
  alpha Z        PSCENC =         0.25023035
  Ewald energy   TEWEN  =       129.38328035
  -Hartree energ DENC   =      -284.94437588
  -exchange      EXHF   =         0.00000000
  -V(xc)+E(xc)   XCENC  =        24.83293534
  PAW double counting   =       479.37771481     -480.17234015
  entropy T*S    EENTRO =        -0.00000000
  eigenvalues    EBANDS =       -89.76821369
  atomic energy  EATOM  =       197.04175453
  Solvation  Ediel_sol  =         0.00000000
  ---------------------------------------------------
  free energy    TOTEN  =       -23.99901434 eV

  energy without entropy =      -23.99901434  energy(sigma->0) =      -23.99901434


--------------------------------------------------------------------------------------------------------




 average (electrostatic) potential at core
  the test charge radii are     0.5201  0.6991
  (the norm of the test charge is              1.0000)
       1 -41.6522       2 -41.6855       3 -41.3649       4 -41.4841       5 -57.9092
 
 
 
 E-fermi :  -8.2477     XC(G=0):  -0.6978     alpha+bet : -0.2176


 k-point     1 :       0.2500    0.2500    0.2500
  band No.  band energies     occupation 
      1     -16.9457      2.00000
      2      -9.4926      2.00000
      3      -9.2554      2.00000
      4      -9.1902      2.00000
      5      -0.2917      0.00000
      6       0.5939      0.00000
      7       0.6960      0.00000
      8       0.7279      0.00000

 k-point     2 :      -0.2500    0.2500    0.2500
  band No.  band energies     occupation 
      1     -16.9457      2.00000
      2      -9.4926      2.00000
      3      -9.2555      2.00000
      4      -9.1904      2.00000
      5      -0.2926      0.00000
      6       0.5916      0.00000
      7       0.6955      0.00000
      8       0.7325      0.00000

 k-point     3 :       0.2500   -0.2500    0.2500
  band No.  band energies     occupation 
      1     -16.9457      2.00000
      2      -9.4927      2.00000
      3      -9.2555      2.00000
      4      -9.1903      2.00000
      5      -0.2970      0.00000
      6       0.6012      0.00000
      7       0.7121      0.00000
      8       0.7391      0.00000

 k-point     4 :      -0.2500   -0.2500    0.2500
  band No.  band energies     occupation 
      1     -16.9457      2.00000
      2      -9.4926      2.00000
      3      -9.2555      2.00000
      4      -9.1903      2.00000
      5      -0.2951      0.00000
      6       0.6024      0.00000
      7       0.7027      0.00000
      8       0.7368      0.00000


--------------------------------------------------------------------------------------------------------


 soft charge-density along one line, spin component           1
         0         1         2         3         4         5         6         7         8         9
 total charge-density along one line
 
 pseudopotential strength for first ion, spin component:           1
 -2.342  -4.036  -0.001  -0.001   0.001
 -4.036  -6.870  -0.003  -0.005   0.002
 -0.001  -0.003  -0.336   0.002  -0.001
 -0.001  -0.005   0.002  -0.334  -0.001
  0.001   0.002  -0.001  -0.001  -0.337
 total augmentation occupancy for first ion, spin component:           1
  3.624  -0.649   0.255   0.349  -0.147
 -0.649   0.131  -0.046  -0.064   0.027
  0.255  -0.046   0.025   0.020  -0.009
  0.349  -0.064   0.020   0.038  -0.012
 -0.147   0.027  -0.009  -0.012   0.015


------------------------ aborting loop because EDIFF is reached ----------------------------------------


    CHARGE:  cpu time    0.0164: real time    0.0165
    FORLOC:  cpu time    0.0132: real time    0.0132
    FORNL :  cpu time    0.0228: real time    0.0230
    STRESS:  cpu time    0.1665: real time    0.1670
    FORCOR:  cpu time    0.1258: real time    0.1266
    FORHAR:  cpu time    0.0419: real time    0.0421
    MIXING:  cpu time    0.0055: real time    0.0055
    OFIELD:  cpu time    0.0000: real time    0.0000

  FORCE on cell =-STRESS in cart. coord.  units (eV):
  Direction    XX          YY          ZZ          XY          YZ          ZX
  --------------------------------------------------------------------------------------
  Alpha Z     0.25023     0.25023     0.25023
  Ewald      45.10778    41.69857    42.57694    -2.64685    -0.77656    -0.74213
  Hartree    96.64727    92.46752    95.83774    -0.44719    -0.71571    -0.08432
  E(xc)     -27.31707   -27.28933   -27.32172    -0.00761    -0.00672    -0.00245
  Local    -200.15558  -192.74231  -197.39328     2.38517     1.60361     0.61664
  n-local   -16.16463   -16.03194   -16.12592     0.05115    -0.03627     0.01275
  augment     0.10798     0.11252     0.11340     0.00642    -0.00195     0.00189
  Kinetic   102.13577   100.72630   102.37531     0.34028     0.33107     0.11041
  Fock        0.00000     0.00000     0.00000     0.00000     0.00000     0.00000
  -------------------------------------------------------------------------------------
  Total       0.61176    -0.80844     0.31270    -0.31863     0.39747    -0.08720
  in kB       1.01243    -1.33792     0.51750    -0.52732     0.65779    -0.14431
  external pressure =        0.06 kB  Pullay stress =        0.00 kB

  kinetic pressure (ideal gas correction) =      0.00 kB
  total pressure  =      0.07 kB
  Total+kin.     1.017      -1.336       0.520      -0.527       0.659      -0.145

 VOLUME and BASIS-vectors are now :
 -----------------------------------------------------------------------------
  energy-cutoff  :      400.00
  volume of cell :      968.11
      direct lattice vectors                 reciprocal lattice vectors
     9.730577453  0.000000000  0.000000000     0.102768824  0.000465477 -0.000306808
    -0.046110481 10.180345455  0.000000000     0.000000000  0.098228494  0.002137240
     0.030139337 -0.212637516  9.772914448     0.000000000  0.000000000  0.102323622

  length of vectors
     9.730577453 10.180449880  9.775273904     0.102770336  0.098251742  0.102323622


 FORCES acting on ions
    electron-ion (+dipol)            ewald-force                    non-local-force                 convergence-correction
 -----------------------------------------------------------------------------------------------
   -.174E+02 0.300E+02 0.413E+02   0.195E+02 -.336E+02 -.464E+02   -.189E+01 0.327E+01 0.443E+01   0.777E-03 -.120E-03 -.288E-03
   0.535E+02 -.704E+01 0.283E+01   -.603E+02 0.783E+01 -.320E+01   0.583E+01 -.785E+00 0.302E+00   -.362E-03 0.534E-03 0.336E-03
   -.224E+02 -.472E+02 0.118E+01   0.245E+02 0.515E+02 -.123E+01   -.222E+01 -.477E+01 0.133E+00   0.908E-03 0.148E-02 0.241E-03
   -.123E+02 0.260E+02 -.446E+02   0.136E+02 -.285E+02 0.493E+02   -.127E+01 0.274E+01 -.460E+01   0.637E-03 -.176E-03 0.109E-02
   -.224E+01 -.236E+01 -.126E+01   0.270E+01 0.279E+01 0.156E+01   0.285E+00 0.203E+00 0.233E+00   0.147E-02 0.122E-02 0.113E-02
 -----------------------------------------------------------------------------------------------
   -.741E+00 -.658E+00 -.501E+00   -.178E-14 0.355E-14 0.000E+00   0.736E+00 0.655E+00 0.498E+00   0.343E-02 0.294E-02 0.251E-02
 
 
 POSITION                                       TOTAL-FORCE (eV/Angst)
 -----------------------------------------------------------------------------------
      5.23027      4.06341      3.52514         0.199455     -0.292932     -0.686197
      3.82382      4.80000      4.29242        -0.906717      0.014018     -0.070565
      5.36091      5.66731      4.32311        -0.063599     -0.519187      0.079945
[...]

  ENERGY OF THE ELECTRON-ION-THERMOSTAT SYSTEM (eV)
  ---------------------------------------------------
% ion-electron   TOTEN  =       -24.010156  see above
  kinetic energy EKIN   =         0.016737
  kin. lattice  EKIN_LAT=         0.000000  (temperature   32.37 K)
  nose potential ES     =         0.000000
  nose kinetic   EPS    =         0.000000
  ---------------------------------------------------
  total energy   ETOTAL =       -23.993418 eV

  maximum distance moved by ions :      0.46E-03

    WAVPRE:  cpu time    0.0441: real time    0.0446
    FEWALD:  cpu time    0.0008: real time    0.0008
    ORTHCH:  cpu time    0.0090: real time    0.0090
 Prediction of Wavefunctions ALPHA= 2.152 BETA=-1.186
     LOOP+:  cpu time    2.0311: real time    2.0458


--------------------------------------- Iteration     10(   1)  ---------------------------------------


    POTLOK:  cpu time    0.1207: real time    0.1215
    SETDIJ:  cpu time    0.0020: real time    0.0020
     EDDAV:  cpu time    0.1413: real time    0.1422
       DOS:  cpu time    0.0003: real time    0.0003
    CHARGE:  cpu time    0.0156: real time    0.0156
    MIXING:  cpu time    0.0040: real time    0.0041
    --------------------------------------------
      LOOP:  cpu time    0.2839: real time    0.2858

 eigenvalue-minimisations  :    64
 total energy-change (2. order) : 0.6403392E-02  (-0.5712971E-04)
 number of electron       8.0000001 magnetization 
 augmentation part        0.1828052 magnetization 

 Broyden mixing:
  rms(total) = 0.20317E-03    rms(broyden)= 0.20249E-03
  rms(prec ) = 0.23634E-03
  weight for this iteration     100.00

 Free energy of the ion-electron system (eV)
  ---------------------------------------------------
  alpha Z        PSCENC =         0.25023035
  Ewald energy   TEWEN  =       125.32522267
  -Hartree energ DENC   =      -281.38362836
  -exchange      EXHF   =         0.00000000
  -V(xc)+E(xc)   XCENC  =        24.64478873
  PAW double counting   =       455.05654870     -455.83697821
  entropy T*S    EENTRO =        -0.00000000
  eigenvalues    EBANDS =       -89.10169059
  atomic energy  EATOM  =       197.04175453
  Solvation  Ediel_sol  =         0.00000000
  ---------------------------------------------------
  free energy    TOTEN  =       -24.00375218 eV

  energy without entropy =      -24.00375218  energy(sigma->0) =      -24.00375218


--------------------------------------------------------------------------------------------------------




--------------------------------------- Iteration     10(   2)  ---------------------------------------


    POTLOK:  cpu time    0.1193: real time    0.1200
    SETDIJ:  cpu time    0.0017: real time    0.0019
    EDDIAG:  cpu time    0.0340: real time    0.0342
  RMM-DIIS:  cpu time    0.1434: real time    0.1455
    ORTHCH:  cpu time    0.0016: real time    0.0016
       DOS:  cpu time    0.0002: real time    0.0002
    CHARGE:  cpu time    0.0160: real time    0.0163
    MIXING:  cpu time    0.0041: real time    0.0043
    --------------------------------------------
      LOOP:  cpu time    0.3204: real time    0.3241

 eigenvalue-minimisations  :    64
 total energy-change (2. order) :-0.4173043E-05  (-0.1579847E-05)
 number of electron       8.0000001 magnetization 
 augmentation part        0.1828141 magnetization 

 Broyden mixing:
  rms(total) = 0.24796E-03    rms(broyden)= 0.24757E-03
  rms(prec ) = 0.29034E-03
  weight for this iteration     100.00

 eigenvalues of (default mixing * dielectric matrix)
  average eigenvalue GAMMA=   0.4079
  0.4079

 Free energy of the ion-electron system (eV)
  ---------------------------------------------------
  alpha Z        PSCENC =         0.25023035
  Ewald energy   TEWEN  =       125.32522267
  -Hartree energ DENC   =      -281.38465139
  -exchange      EXHF   =         0.00000000
  -V(xc)+E(xc)   XCENC  =        24.64479677
  PAW double counting   =       455.02492260     -455.80533097
  entropy T*S    EENTRO =        -0.00000000
  eigenvalues    EBANDS =       -89.10070093
  atomic energy  EATOM  =       197.04175453
  Solvation  Ediel_sol  =         0.00000000
  ---------------------------------------------------
  free energy    TOTEN  =       -24.00375635 eV

  energy without entropy =      -24.00375635  energy(sigma->0) =      -24.00375635


--------------------------------------------------------------------------------------------------------




--------------------------------------- Iteration     10(   3)  ---------------------------------------


    POTLOK:  cpu time    0.1202: real time    0.1209
    SETDIJ:  cpu time    0.0019: real time    0.0019
    EDDIAG:  cpu time    0.0337: real time    0.0338
  RMM-DIIS:  cpu time    0.1149: real time    0.1160
    ORTHCH:  cpu time    0.0017: real time    0.0017
       DOS:  cpu time    0.0002: real time    0.0002
    CHARGE:  cpu time    0.0160: real time    0.0162
    MIXING:  cpu time    0.0044: real time    0.0044
    --------------------------------------------
      LOOP:  cpu time    0.2931: real time    0.2951

 eigenvalue-minimisations  :    48
 total energy-change (2. order) :-0.7034992E-06  (-0.2990058E-07)
 number of electron       8.0000001 magnetization 
 augmentation part        0.1828142 magnetization 

 Broyden mixing:
  rms(total) = 0.22114E-03    rms(broyden)= 0.22111E-03
  rms(prec ) = 0.26119E-03
  weight for this iteration     100.00

 eigenvalues of (default mixing * dielectric matrix)
  average eigenvalue GAMMA=   1.6901
  1.2186  2.1617

 Free energy of the ion-electron system (eV)
  ---------------------------------------------------
  alpha Z        PSCENC =         0.25023035
  Ewald energy   TEWEN  =       125.32522267
  -Hartree energ DENC   =      -281.38386093
  -exchange      EXHF   =         0.00000000
  -V(xc)+E(xc)   XCENC  =        24.64476601
  PAW double counting   =       455.00516526     -455.78556663
  entropy T*S    EENTRO =        -0.00000000
  eigenvalues    EBANDS =       -89.10146831
  atomic energy  EATOM  =       197.04175453
  Solvation  Ediel_sol  =         0.00000000
  ---------------------------------------------------
  free energy    TOTEN  =       -24.00375706 eV

  energy without entropy =      -24.00375706  energy(sigma->0) =      -24.00375706


--------------------------------------------------------------------------------------------------------




--------------------------------------- Iteration     10(   4)  ---------------------------------------


    POTLOK:  cpu time    0.1215: real time    0.1225
    SETDIJ:  cpu time    0.0019: real time    0.0019
    EDDIAG:  cpu time    0.0347: real time    0.0350
  RMM-DIIS:  cpu time    0.1160: real time    0.1166
    ORTHCH:  cpu time    0.0016: real time    0.0016
       DOS:  cpu time    0.0002: real time    0.0002
    CHARGE:  cpu time    0.0161: real time    0.0163
    MIXING:  cpu time    0.0046: real time    0.0046
    --------------------------------------------
      LOOP:  cpu time    0.2965: real time    0.2985

 eigenvalue-minimisations  :    48
 total energy-change (2. order) :-0.4736443E-05  (-0.9882967E-07)
 number of electron       8.0000001 magnetization 
 augmentation part        0.1828199 magnetization 

 Broyden mixing:
  rms(total) = 0.85709E-04    rms(broyden)= 0.85678E-04
  rms(prec ) = 0.12093E-03
  weight for this iteration     100.00

 eigenvalues of (default mixing * dielectric matrix)
  average eigenvalue GAMMA=   1.3174
  2.4882  1.0911  0.3729

 Free energy of the ion-electron system (eV)
  ---------------------------------------------------
  alpha Z        PSCENC =         0.25023035
  Ewald energy   TEWEN  =       125.32522267
  -Hartree energ DENC   =      -281.37903718
  -exchange      EXHF   =         0.00000000
  -V(xc)+E(xc)   XCENC  =        24.64458679
  PAW double counting   =       454.90211548     -455.68247378
  entropy T*S    EENTRO =        -0.00000000
  eigenvalues    EBANDS =       -89.10616066
  atomic energy  EATOM  =       197.04175453
  Solvation  Ediel_sol  =         0.00000000
  ---------------------------------------------------
  free energy    TOTEN  =       -24.00376179 eV

  energy without entropy =      -24.00376179  energy(sigma->0) =      -24.00376179


--------------------------------------------------------------------------------------------------------




--------------------------------------- Iteration     10(   5)  ---------------------------------------


    POTLOK:  cpu time    0.1189: real time    0.1220
    SETDIJ:  cpu time    0.0019: real time    0.0019
    EDDIAG:  cpu time    0.0342: real time    0.0344
  RMM-DIIS:  cpu time    0.1134: real time    0.1142
    ORTHCH:  cpu time    0.0022: real time    0.0022
       DOS:  cpu time    0.0002: real time    0.0002
    --------------------------------------------
      LOOP:  cpu time    0.2706: real time    0.2747

 eigenvalue-minimisations  :    48
 total energy-change (2. order) :-0.6131769E-06  (-0.1528146E-07)
 number of electron       8.0000001 magnetization 
 augmentation part        0.1828199 magnetization 

 Free energy of the ion-electron system (eV)
  ---------------------------------------------------
  alpha Z        PSCENC =         0.25023035
  Ewald energy   TEWEN  =       125.32522267
  -Hartree energ DENC   =      -281.37919891
  -exchange      EXHF   =         0.00000000
  -V(xc)+E(xc)   XCENC  =        24.64459833
  PAW double counting   =       454.89317392     -455.67353492
  entropy T*S    EENTRO =        -0.00000000
  eigenvalues    EBANDS =       -89.10600838
  atomic energy  EATOM  =       197.04175453
  Solvation  Ediel_sol  =         0.00000000
  ---------------------------------------------------
  free energy    TOTEN  =       -24.00376241 eV

  energy without entropy =      -24.00376241  energy(sigma->0) =      -24.00376241


--------------------------------------------------------------------------------------------------------




 average (electrostatic) potential at core
  the test charge radii are     0.5201  0.6991
  (the norm of the test charge is              1.0000)
       1 -41.3236       2 -41.2891       3 -41.6432       4 -41.4923       5 -58.0156
 
 
 
 E-fermi :  -8.1884     XC(G=0):  -0.7247     alpha+bet : -0.2176


 k-point     1 :       0.2500    0.2500    0.2500
  band No.  band energies     occupation 
      1     -16.8126      2.00000
      2      -9.3727      2.00000
      3      -9.2072      2.00000
      4      -9.1602      2.00000
      5      -0.3204      0.00000
      6       0.5588      0.00000
      7       0.6826      0.00000
      8       0.7152      0.00000

 k-point     2 :      -0.2500    0.2500    0.2500
  band No.  band energies     occupation 
      1     -16.8126      2.00000
      2      -9.3728      2.00000
      3      -9.2074      2.00000
      4      -9.1603      2.00000
      5      -0.3200      0.00000
      6       0.5508      0.00000
      7       0.6872      0.00000
      8       0.7111      0.00000

 k-point     3 :       0.2500   -0.2500    0.2500
  band No.  band energies     occupation 
      1     -16.8126      2.00000
      2      -9.3728      2.00000
      3      -9.2073      2.00000
      4      -9.1604      2.00000
      5      -0.3254      0.00000
      6       0.5688      0.00000
      7       0.6993      0.00000
      8       0.7190      0.00000

 k-point     4 :      -0.2500   -0.2500    0.2500
  band No.  band energies     occupation 
      1     -16.8127      2.00000
      2      -9.3728      2.00000
      3      -9.2073      2.00000
      4      -9.1602      2.00000
      5      -0.3242      0.00000
      6       0.5726      0.00000
      7       0.6860      0.00000
      8       0.7229      0.00000


--------------------------------------------------------------------------------------------------------


 soft charge-density along one line, spin component           1
         0         1         2         3         4         5         6         7         8         9
 total charge-density along one line
 
 pseudopotential strength for first ion, spin component:           1
 -2.340  -4.031  -0.001  -0.001   0.001
 -4.031  -6.859  -0.003  -0.004   0.002
 -0.001  -0.003  -0.339   0.002  -0.001
 -0.001  -0.004   0.002  -0.337  -0.001
  0.001   0.002  -0.001  -0.001  -0.340
 total augmentation occupancy for first ion, spin component:           1
  3.456  -0.624   0.221   0.313  -0.127
 -0.624   0.126  -0.041  -0.058   0.024
  0.221  -0.041   0.020   0.017  -0.007
  0.313  -0.058   0.017   0.032  -0.010
 -0.127   0.024  -0.007  -0.010   0.012


------------------------ aborting loop because EDIFF is reached ----------------------------------------


    CHARGE:  cpu time    0.0160: real time    0.0161
    FORLOC:  cpu time    0.0130: real time    0.0130
    FORNL :  cpu time    0.0210: real time    0.0210
    STRESS:  cpu time    0.1621: real time    0.1631
    FORCOR:  cpu time    0.1251: real time    0.1257
    FORHAR:  cpu time    0.0418: real time    0.0421
    MIXING:  cpu time    0.0046: real time    0.0046
    OFIELD:  cpu time    0.0000: real time    0.0000

  FORCE on cell =-STRESS in cart. coord.  units (eV):
  Direction    XX          YY          ZZ          XY          YZ          ZX
  --------------------------------------------------------------------------------------
  Alpha Z     0.25023     0.25023     0.25023
  Ewald      42.97762    39.70249    42.64511     0.32949    -1.09337     0.08939
  Hartree    96.02949    90.14541    95.21060    -0.31622    -0.32699    -0.04239
  E(xc)     -27.10407   -27.10560   -27.10807    -0.00496     0.00086    -0.00160
  Local    -198.33452  -188.09329  -196.92518     0.32470     1.12119     0.03009
  n-local   -15.62567   -15.73987   -15.66863    -0.05026     0.03473    -0.01419
  augment     0.12455     0.11410     0.12192    -0.00367     0.00287    -0.00082
  Kinetic   100.41901   100.51350   100.62625     0.24408    -0.05152     0.07908
  Fock        0.00000     0.00000     0.00000     0.00000     0.00000     0.00000
  -------------------------------------------------------------------------------------
  Total      -1.26335    -0.21303    -0.84778     0.52317    -0.31225     0.13954
  in kB      -2.09078    -0.35255    -1.40303     0.86582    -0.51675     0.23093
  external pressure =       -1.28 kB  Pullay stress =        0.00 kB

  kinetic pressure (ideal gas correction) =      0.01 kB
  total pressure  =     -1.27 kB
  Total+kin.    -2.077      -0.340      -1.385       0.867      -0.515       0.234

 VOLUME and BASIS-vectors are now :
 -----------------------------------------------------------------------------
  energy-cutoff  :      400.00
  volume of cell :      968.11
      direct lattice vectors                 reciprocal lattice vectors
     9.730577453  0.000000000  0.000000000     0.102768824  0.000465477 -0.000306808
    -0.046110481 10.180345455  0.000000000     0.000000000  0.098228494  0.002137240
     0.030139337 -0.212637516  9.772914448     0.000000000  0.000000000  0.102323622

  length of vectors
     9.730577453 10.180449880  9.775273904     0.102770336  0.098251742  0.102323622


 FORCES acting on ions
    electron-ion (+dipol)            ewald-force                    non-local-force                 convergence-correction
 -----------------------------------------------------------------------------------------------
   -.162E+02 0.283E+02 0.400E+02   0.176E+02 -.307E+02 -.435E+02   -.162E+01 0.283E+01 0.400E+01   0.219E-03 -.388E-03 -.539E-03
   0.509E+02 -.607E+01 0.291E+01   -.551E+02 0.654E+01 -.316E+01   0.505E+01 -.602E+00 0.287E+00   -.716E-03 0.785E-04 -.408E-04
   -.234E+02 -.480E+02 0.103E+01   0.262E+02 0.537E+02 -.116E+01   -.252E+01 -.518E+01 0.116E+00   0.311E-03 0.630E-03 -.108E-04
   -.121E+02 0.252E+02 -.446E+02   0.133E+02 -.278E+02 0.492E+02   -.125E+01 0.263E+01 -.465E+01   0.152E-03 -.319E-03 0.560E-03
   0.157E+01 0.130E+01 0.113E+01   -.197E+01 -.169E+01 -.140E+01   -.420E+00 -.410E+00 -.265E+00   0.508E-04 -.274E-04 0.154E-04
 -----------------------------------------------------------------------------------------------
   0.769E+00 0.722E+00 0.511E+00   0.000E+00 0.000E+00 -.711E-14   -.769E+00 -.722E+00 -.511E+00   0.171E-04 -.258E-04 -.157E-04
 
 
 POSITION                                       TOTAL-FORCE (eV/Angst)
 -----------------------------------------------------------------------------------
      5.23968      4.05081      3.48197        -0.250060      0.411254      0.525120
      3.77182      4.79683      4.28734         0.829813     -0.131687      0.031339
      5.36229      5.63488      4.32990         0.263522      0.474914     -0.007101
      5.13912      4.13940      5.28195        -0.018169      0.046677     -0.018434
      4.88770      4.66470      4.35102        -0.825652     -0.800872     -0.531064
 -----------------------------------------------------------------------------------
    total drift:                               -0.000547      0.000287     -0.000140


--------------------------------------------------------------------------------------------------------



  FREE ENERGIE OF THE ION-ELECTRON SYSTEM (eV)
  ---------------------------------------------------
  free  energy   TOTEN  =       -24.00376241 eV

  energy  without entropy=      -24.00376241  energy(sigma->0) =      -24.00376241
 
 d Force =-0.6393176E-02[-0.706E-02,-0.572E-02]  d Energy =-0.6393258E-02 0.814E-07
 d Force = 0.3220385E+00[ 0.321E+00, 0.323E+00]  d Ewald  = 0.3220373E+00 0.125E-05


--------------------------------------------------------------------------------------------------------


    POTLOK:  cpu time    0.1235: real time    0.1241


--------------------------------------------------------------------------------------------------------


           RANDOM_SEED =         172269301               30                0
   IONSTEP:  cpu time    0.0001: real time    0.0001

  ENERGY OF THE ELECTRON-ION-THERMOSTAT SYSTEM (eV)
  ---------------------------------------------------
% ion-electron   TOTEN  =       -24.003762  see above
  kinetic energy EKIN   =         0.010474
  kin. lattice  EKIN_LAT=         0.000000  (temperature   20.26 K)
  nose potential ES     =         0.000000
  nose kinetic   EPS    =         0.000000
  ---------------------------------------------------
  total energy   ETOTAL =       -23.993288 eV

  maximum distance moved by ions :      0.35E-03


 mean value of Nose-termostat <S>:     1.000 mean value of <T> :    35.925
 mean temperature <T/S>/<1/S>  :    35.925

    WAVPRE:  cpu time    0.0472: real time    0.0479
    FEWALD:  cpu time    0.0006: real time    0.0006
    ORTHCH:  cpu time    0.0091: real time    0.0091
 Prediction of Wavefunctions ALPHA= 2.085 BETA=-1.111
    POTLOK:  cpu time    0.1194: real time    0.1214
    EDDIAG:  cpu time    0.0349: real time    0.0351
     LOOP+:  cpu time    2.1874: real time    2.2071
    4ORBIT:  cpu time    0.0000: real time    0.0000

 total amount of memory used by VASP MPI-rank0    52306. kBytes
=======================================================================

   base      :      30000. kBytes
   nonl-proj :       2602. kBytes
   fftplans  :       7001. kBytes
   grid      :      11005. kBytes
   one-center:          6. kBytes
   wavefun   :       1692. kBytes
 
  
  
 General timing and accounting informations for this job:
 ========================================================
  
                  Total CPU time used (sec):       26.409
                            User time (sec):       24.055
                          System time (sec):        2.354
                         Elapsed time (sec):       26.866
  
                   Maximum memory used (kb):      168132.
                   Average memory used (kb):           0.
  
                          Minor page faults:       220993
                          Major page faults:            3
                 Voluntary context switches:           78
