 vasp.5.4.4.18Apr17-6-g9f103f2a35 (build Jul 09 2021 13:05:15) complex          
  
 executed on             LinuxIFC date 2021.11.04  19:02:08
 running on   16 total cores
 distrk:  each k-point on   16 cores,    1 groups
 distr:  one band on NCORES_PER_BAND=   4 cores,    4 groups


--------------------------------------------------------------------------------------------------------


 INCAR:
 POTCAR:    PAW_PBE H 15Jun2001                   
 POTCAR:    PAW_PBE C 08Apr2002                   
 POTCAR:    PAW_PBE H 15Jun2001                   
   VRHFIN =H: ultrasoft test                                                    
   LEXCH  = PE                                                                  
   EATOM  =    12.4884 eV,    0.9179 Ry                                         
                                                                                
   TITEL  = PAW_PBE H 15Jun2001                                                 
   LULTRA =        F    use ultrasoft PP ?                                      
   IUNSCR =        0    unscreen: 0-lin 1-nonlin 2-no                           
   RPACOR =    0.000    partial core radius                                     
   POMASS =    1.000; ZVAL   =    1.000    mass and valenz                      
   RCORE  =    1.100    outmost cutoff radius                                   
   RWIGS  =    0.700; RWIGS  =    0.370    wigner-seitz radius (au A)           
   ENMAX  =  250.000; ENMIN  =  200.000 eV                                      
   RCLOC  =    0.701    cutoff for local pot                                    
   LCOR   =        T    correct aug charges                                     
   LPAW   =        T    paw PP                                                  
   EAUG   =  400.000                                                            
   RMAX   =    1.123    core radius for proj-oper                               
   RAUG   =    1.200    factor for augmentation sphere                          
   RDEP   =    1.112    radius for radial grids                                 
   RDEPT  =    0.926    core radius for aug-charge                              
                                                                                
   Atomic configuration                                                         
    2 entries                                                                   
     n  l   j            E        occ.                                          
     1  0  0.50        -6.4927   1.0000                                         
     2  1  0.50        -3.4015   0.0000                                         
   Description                                                                  
     l       E           TYP  RCUT    TYP  RCUT                                 
     0     -6.4927494     23  1.100                                             
     0      6.8029130     23  1.100                                             
     1     -4.0817478     23  1.100                                             
  local pseudopotential read in
  atomic valenz-charges read in
  non local Contribution for L=           0  read in
    real space projection operators read in
  non local Contribution for L=           0  read in
    real space projection operators read in
  non local Contribution for L=           1  read in
    real space projection operators read in
    PAW grid and wavefunctions read in
 
   number of l-projection  operators is LMAX  =           3
   number of lm-projection operators is LMMAX =           5
 
 POTCAR:    PAW_PBE C 08Apr2002                   
   VRHFIN =C: s2p2                                                              
   LEXCH  = PE                                                                  
   EATOM  =   147.1560 eV,   10.8157 Ry                                         
                                                                                
   TITEL  = PAW_PBE C 08Apr2002                                                 
   LULTRA =        F    use ultrasoft PP ?                                      
   IUNSCR =        1    unscreen: 0-lin 1-nonlin 2-no                           
   RPACOR =    1.200    partial core radius                                     
   POMASS =   12.011; ZVAL   =    4.000    mass and valenz                      
   RCORE  =    1.500    outmost cutoff radius                                   
   RWIGS  =    1.630; RWIGS  =    0.863    wigner-seitz radius (au A)           
   ENMAX  =  400.000; ENMIN  =  300.000 eV                                      
   ICORE  =        2    local potential                                         
   LCOR   =        T    correct aug charges                                     
   LPAW   =        T    paw PP                                                  
   EAUG   =  644.873                                                            
   DEXC   =    0.000                                                            
   RMAX   =    1.529    core radius for proj-oper                               
   RAUG   =    1.300    factor for augmentation sphere                          
   RDEP   =    1.501    radius for radial grids                                 
   RDEPT  =    1.300    core radius for aug-charge                              
                                                                                
   Atomic configuration                                                         
    4 entries                                                                   
     n  l   j            E        occ.                                          
     1  0  0.50      -273.3789   2.0000                                         
     2  0  0.50       -13.7508   2.0000                                         
     2  1  0.50        -5.2854   2.0000                                         
     3  2  1.50        -5.4423   0.0000                                         
   Description                                                                  
     l       E           TYP  RCUT    TYP  RCUT                                 
     0    -13.7508458     23  1.200                                             
     0     -8.2022199     23  1.200                                             
     1     -5.2854383     23  1.500                                             
     1     34.0145650     23  1.500                                             
     2     -5.4423304      7  1.500                                             
  local pseudopotential read in
  partial core-charges read in
  partial kinetic energy density read in
  atomic valenz-charges read in
  non local Contribution for L=           0  read in
    real space projection operators read in
  non local Contribution for L=           0  read in
    real space projection operators read in
  non local Contribution for L=           1  read in
    real space projection operators read in
  non local Contribution for L=           1  read in
    real space projection operators read in
    PAW grid and wavefunctions read in
 
   number of l-projection  operators is LMAX  =           4
   number of lm-projection operators is LMMAX =           8
 
  PAW_PBE H 15Jun2001                   :
 energy of atom  1       EATOM=  -12.4884
 kinetic energy error for atom=    0.0098 (will be added to EATOM!!)
  PAW_PBE C 08Apr2002                   :
 energy of atom  2       EATOM= -147.1560
 kinetic energy error for atom=    0.0288 (will be added to EATOM!!)
 
 
 POSCAR:  H  C                                   
  positions in cartesian coordinates
  No initial velocities read in
 exchange correlation table for  LEXCH =        8
   RHO(1)=    0.500       N(1)  =     2000
   RHO(2)=  100.500       N(2)  =     4000
 


--------------------------------------------------------------------------------------------------------


 ion  position               nearest neighbor table
   1  0.538  0.407  0.360-   5 1.09
   2  0.394  0.481  0.439-   5 1.12
   3  0.552  0.565  0.442-   5 1.10
   4  0.528  0.416  0.539-   5 1.09
   5  0.503  0.466  0.445-   1 1.09   4 1.09   3 1.10   2 1.12
 

IMPORTANT INFORMATION: All symmetrisations will be switched off!
NOSYMM: (Re-)initialisation of all symmetry stuff for point group C_1.

 
 

Automatic generation of k-mesh.
 generate k-points for:    2    2    2
Space group operators:
 irot       det(A)        alpha          n_x          n_y          n_z        tau_x        tau_y        tau_z
    1     1.000000     0.000001     1.000000     0.000000     0.000000     0.000000     0.000000     0.000000
 
 Subroutine IBZKPT returns following result:
 ===========================================
 
 Found      4 irreducible k-points:
 
 Following reciprocal coordinates:
            Coordinates               Weight
  0.250000  0.250000  0.250000      2.000000
 -0.250000  0.250000  0.250000      2.000000
  0.250000 -0.250000  0.250000      2.000000
 -0.250000 -0.250000  0.250000      2.000000
 
 Following cartesian coordinates:
            Coordinates               Weight
  0.024581  0.024977  0.024772      2.000000
 -0.024581  0.025489  0.025173      2.000000
  0.024581 -0.025489  0.024805      2.000000
 -0.024581 -0.024977  0.025206      2.000000
 


--------------------------------------------------------------------------------------------------------




 Dimension of arrays:
   k-points           NKPTS =      4   k-points in BZ     NKDIM =      4   number of bands    NBANDS=      8
   number of dos      NEDOS =    301   number of ions     NIONS =      5
   non local maximal  LDIM  =      4   non local SUM 2l+1 LMDIM =      8
   total plane-waves  NPLWV = 343000
   max r-space proj   IRMAX =      1   max aug-charges    IRDMAX=   4214
   dimension x,y,z NGX =    70 NGY =   70 NGZ =   70
   dimension x,y,z NGXF=   140 NGYF=  140 NGZF=  140
   support grid    NGXF=   140 NGYF=  140 NGZF=  140
   ions per type =               4   1
   NGX,Y,Z   is equivalent  to a cutoff of  11.44, 11.75, 11.63 a.u.
   NGXF,Y,Z  is equivalent  to a cutoff of  22.88, 23.49, 23.26 a.u.

 SYSTEM =  unknown system                          
 POSCAR =   H  C                                   

 Startparameter for this run:
   NWRITE =      2    write-flag & timer
   PREC   = a         normal or accurate (medium, high low for compatibility)
   ISTART =      0    job   : 0-new  1-cont  2-samecut
   ICHARG =      2    charge: 1-file 2-atom 10-const
   ISPIN  =      1    spin polarized calculation?
   LNONCOLLINEAR =      F non collinear calculations
   LSORBIT =      F    spin-orbit coupling
   INIWAV =      1    electr: 0-lowe 1-rand  2-diag
   LASPH  =      F    aspherical Exc in radial PAW
   METAGGA=      F    non-selfconsistent MetaGGA calc.

 Electronic Relaxation 1
   ENCUT  =  400.0 eV  29.40 Ry    5.42 a.u.  16.59 16.16 16.32*2*pi/ulx,y,z
   ENINI  =  400.0     initial cutoff
   ENAUG  =  644.9 eV  augmentation charge cutoff
   NELM   =    120;   NELMIN=  4; NELMDL= -5     # of ELM steps 
   EDIFF  = 0.1E-05   stopping-criterion for ELM
   LREAL  =      F    real-space projection
   NLSPLINE    = F    spline interpolate recip. space projectors
   LCOMPAT=      F    compatible to vasp.4.4
   GGA_COMPAT  = T    GGA compatible to vasp.4.4-vasp.4.6
   LMAXPAW     = -100 max onsite density
   LMAXMIX     =    2 max onsite mixed and CHGCAR
   VOSKOWN=      0    Vosko Wilk Nusair interpolation
   ROPT   =    0.00000   0.00000
 Ionic relaxation
   EDIFFG = 0.1E-04   stopping-criterion for IOM
   NSW    =     10    number of steps for IOM
   NBLOCK =      1;   KBLOCK =     10    inner block; outer block 
   IBRION =      0    ionic relax: 0-MD 1-quasi-New 2-CG
   NFREE  =      0    steps in history (QN), initial steepest desc. (CG)
   ISIF   =      2    stress and relaxation
   IWAVPR =     12    prediction:  0-non 1-charg 2-wave 3-comb
   ISYM   =      0    0-nonsym 1-usesym 2-fastsym
   LCORR  =      T    Harris-Foulkes like correction to forces

   POTIM  = 0.5000    time-step for ionic-motion
   TEIN   =    0.0    initial temperature
   TEBEG  =    0.0;   TEEND  =   0.0 temperature during run
   SMASS  =  -3.00    Nose mass-parameter (am)
   estimated Nose-frequenzy (Omega)   =  0.10E-29 period in steps =****** mass=  -0.236E-26a.u.
   SCALEE = 1.0000    scale energy and forces
   NPACO  =    256;   APACO  = 16.0  distance and # of slots for P.C.
   PSTRESS=    0.0 pullay stress

  Mass of Ions in am
   POMASS =   1.00 12.01
  Ionic Valenz
   ZVAL   =   1.00  4.00
  Atomic Wigner-Seitz radii
   RWIGS  =  -1.00 -1.00
  virtual crystal weights 
   VCA    =   1.00  1.00
   NELECT =       8.0000    total number of electrons
   NUPDOWN=      -1.0000    fix difference up-down

 DOS related values:
   EMIN   =  10.00;   EMAX   =-10.00  energy-range for DOS
   EFERMI =   0.00
   ISMEAR =     0;   SIGMA  =   0.20  broadening in eV -4-tet -1-fermi 0-gaus

 Electronic relaxation 2 (details)
   IALGO  =     68    algorithm
   LDIAG  =      T    sub-space diagonalisation (order eigenvalues)
   LSUBROT=      F    optimize rotation matrix (better conditioning)
   TURBO    =      0    0=normal 1=particle mesh
   IRESTART =      0    0=no restart 2=restart with 2 vectors
   NREBOOT  =      0    no. of reboots
   NMIN     =      0    reboot dimension
   EREF     =   0.00    reference energy to select bands
   IMIX   =      4    mixing-type and parameters
     AMIX     =   0.40;   BMIX     =  1.00
     AMIX_MAG =   1.60;   BMIX_MAG =  1.00
     AMIN     =   0.10
     WC   =   100.;   INIMIX=   1;  MIXPRE=   1;  MAXMIX= -45

 Intra band minimization:
   WEIMIN = 0.0010     energy-eigenvalue tresh-hold
   EBREAK =  0.31E-07  absolut break condition
   DEPER  =   0.30     relativ break condition  

   TIME   =   0.40     timestep for ELM

  volume/ion in A,a.u.               =     201.62      1360.57
  Fermi-wavevector in a.u.,A,eV,Ry     =   0.326543  0.617076  1.450790  0.106630
  Thomas-Fermi vector in A             =   1.218495
 
 Write flags
   LWAVE        =      F    write WAVECAR
   LDOWNSAMPLE  =      F    k-point downsampling of WAVECAR
   LCHARG       =      F    write CHGCAR
   LVTOT        =      F    write LOCPOT, total local potential
   LVHAR        =      F    write LOCPOT, Hartree potential only
   LELF         =      F    write electronic localiz. function (ELF)
   LORBIT       =      0    0 simple, 1 ext, 2 COOP (PROOUT), +10 PAW based schemes


 Dipole corrections
   LMONO  =      F    monopole corrections only (constant potential shift)
   LDIPOL =      F    correct potential (dipole corrections)
   IDIPOL =      0    1-x, 2-y, 3-z, 4-all directions 
   EPSILON=  1.0000000 bulk dielectric constant

 Exchange correlation treatment:
   GGA     =    --    GGA type
   LEXCH   =     8    internal setting for exchange type
   VOSKOWN=      0    Vosko Wilk Nusair interpolation
   LHFCALC =     F    Hartree Fock is set to
   LHFONE  =     F    Hartree Fock one center treatment
   AEXX    =    0.0000 exact exchange contribution

 Linear response parameters
   LEPSILON=     F    determine dielectric tensor
   LRPA    =     F    only Hartree local field effects (RPA)
   LNABLA  =     F    use nabla operator in PAW spheres
   LVEL    =     F    velocity operator in full k-point grid
   LINTERFAST=   F  fast interpolation
   KINTER  =     0    interpolate to denser k-point grid
   CSHIFT  =0.1000    complex shift for real part using Kramers Kronig
   OMEGAMAX=  -1.0    maximum frequency
   DEG_THRESHOLD= 0.2000000E-02 threshold for treating states as degnerate
   RTIME   =   -0.100 relaxation time in fs
  (WPLASMAI=    0.000 imaginary part of plasma frequency in eV, 0.658/RTIME)
   DFIELD  = 0.0000000 0.0000000 0.0000000 field for delta impulse in time
 
 Orbital magnetization related:
   ORBITALMAG=     F  switch on orbital magnetization
   LCHIMAG   =     F  perturbation theory with respect to B field
   DQ        =  0.001000  dq finite difference perturbation B field
   LLRAUG    =     F  two centre corrections for induced B field



--------------------------------------------------------------------------------------------------------


 molecular dynamics for ions
   using a microcanonical ensemble
 charge density and potential will be updated during run
 non-spin polarized calculation
 RMM-DIIS sequential band-by-band and
  variant of blocked Davidson during initial phase
 perform sub-space diagonalisation
    before iterative eigenvector-optimisation
 modified Broyden-mixing scheme, WC =      100.0
 initial mixing is a Kerker type mixing with AMIX =  0.4000 and BMIX =      1.0000
 Hartree-type preconditioning will be used
 using additional bands            4
 reciprocal scheme for non local part
 use partial core corrections
 calculate Harris-corrections to forces 
   (improved forces if not selfconsistent)
 use gradient corrections 
 use of overlap-Matrix (Vanderbilt PP)
 Gauss-broadening in eV      SIGMA  =   0.20


--------------------------------------------------------------------------------------------------------


  energy-cutoff  :      400.00
  volume of cell :     1008.08
      direct lattice vectors                 reciprocal lattice vectors
    10.170357018  0.000000000  0.000000000     0.098324965 -0.001024101 -0.000802375
     0.103192196  9.907583307  0.000000000     0.000000000  0.100932787 -0.000065863
     0.081708299  0.006528316 10.004402387     0.000000000  0.000000000  0.099955995

  length of vectors
    10.170357018  9.908120690 10.004738177     0.098333572  0.100932809  0.099955995


 
 k-points in units of 2pi/SCALE and weight: read from INCAR                         
   0.02458124  0.02497717  0.02477194       0.250
  -0.02458124  0.02548922  0.02517313       0.250
   0.02458124 -0.02548922  0.02480487       0.250
  -0.02458124 -0.02497717  0.02520606       0.250
 
 k-points in reciprocal lattice and weights: read from INCAR                         
   0.25000000  0.25000000  0.25000000       0.250
  -0.25000000  0.25000000  0.25000000       0.250
   0.25000000 -0.25000000  0.25000000       0.250
  -0.25000000 -0.25000000  0.25000000       0.250
 
 position of ions in fractional coordinates (direct lattice) 
   0.53825334  0.40691713  0.36037507
   0.39388537  0.48076870  0.43892486
   0.55207274  0.56537167  0.44240476
   0.52779050  0.41584291  0.53864538
   0.50324005  0.46635449  0.44499505
 
 position of ions in cartesian coordinates  (Angst):
   5.54566489  4.03391805  3.60533723
   4.09143021  4.76612141  4.39118088
   5.70926696  5.60435506  4.42599519
   5.45474136  4.12351474  5.38882512
   5.20261492  4.62335105  4.45190949
 


--------------------------------------------------------------------------------------------------------


 k-point  1 :   0.2500 0.2500 0.2500  plane waves:   18292
 k-point  2 :  -0.2500 0.2500 0.2500  plane waves:   18317
 k-point  3 :   0.2500-0.2500 0.2500  plane waves:   18309
 k-point  4 :  -0.2500-0.2500 0.2500  plane waves:   18315

 maximum and minimum number of plane-waves per node :      4597     4561

 maximum number of plane-waves:     18317
 maximum index in each direction: 
   IXMAX=   16   IYMAX=   16   IZMAX=   16
   IXMIN=  -16   IYMIN=  -16   IZMIN=  -16


 parallel 3D FFT for wavefunctions:
    minimum data exchange during FFTs selected (reduces bandwidth)
 parallel 3D FFT for charge:
    minimum data exchange during FFTs selected (reduces bandwidth)


 total amount of memory used by VASP MPI-rank0    55420. kBytes
=======================================================================

   base      :      30000. kBytes
   nonl-proj :       2723. kBytes
   fftplans  :       8574. kBytes
   grid      :      13527. kBytes
   one-center:          6. kBytes
   wavefun   :        590. kBytes
 
     INWAV:  cpu time    0.0000: real time    0.0002
 Broyden mixing: mesh for mixing (old mesh)
   NGX = 33   NGY = 33   NGZ = 33
  (NGX  =140   NGY  =140   NGZ  =140)
  gives a total of  35937 points

 initial charge density was supplied:
 charge density of overlapping atoms calculated
 number of electron       8.0000000 magnetization 
 keeping initial charge density in first step


--------------------------------------------------------------------------------------------------------


 Maximum index for augmentation-charges          170 (set IRDMAX)


--------------------------------------------------------------------------------------------------------


 First call to EWALD:  gamma=   0.177
 Maximum number of real-space cells 3x 3x 3
 Maximum number of reciprocal cells 3x 3x 3

    FEWALD:  cpu time    0.0029: real time    0.0029


--------------------------------------- Iteration      1(   1)  ---------------------------------------


    POTLOK:  cpu time    0.1755: real time    0.1891
    SETDIJ:  cpu time    0.0043: real time    0.0055
     EDDAV:  cpu time    0.2251: real time    0.2500
       DOS:  cpu time    0.0008: real time    0.0016
    --------------------------------------------
      LOOP:  cpu time    0.4058: real time    0.4462

 eigenvalue-minimisations  :    96
 total energy-change (2. order) : 0.8972283E+01  (-0.1982900E+03)
 number of electron       8.0000000 magnetization 
 augmentation part        8.0000000 magnetization 

 Free energy of the ion-electron system (eV)
  ---------------------------------------------------
  alpha Z        PSCENC =         0.24030905
  Ewald energy   TEWEN  =       128.09215268
  -Hartree energ DENC   =      -243.81074202
  -exchange      EXHF   =         0.00000000
  -V(xc)+E(xc)   XCENC  =        21.98588535
  PAW double counting   =       117.05815612     -117.66307307
  entropy T*S    EENTRO =        -0.00000000
  eigenvalues    EBANDS =       -93.97215991
  atomic energy  EATOM  =       197.04175453
  Solvation  Ediel_sol  =         0.00000000
  ---------------------------------------------------
  free energy    TOTEN  =         8.97228272 eV

  energy without entropy =        8.97228272  energy(sigma->0) =        8.97228272


--------------------------------------------------------------------------------------------------------




--------------------------------------- Iteration      1(   2)  ---------------------------------------


     EDDAV:  cpu time    0.1654: real time    0.1682
       DOS:  cpu time    0.0002: real time    0.0002
    --------------------------------------------
      LOOP:  cpu time    0.1655: real time    0.1684

 eigenvalue-minimisations  :    64
 total energy-change (2. order) :-0.3284404E+02  (-0.3284404E+02)
 number of electron       8.0000000 magnetization 
 augmentation part        8.0000000 magnetization 

 Free energy of the ion-electron system (eV)
  ---------------------------------------------------
  alpha Z        PSCENC =         0.24030905
  Ewald energy   TEWEN  =       128.09215268
  -Hartree energ DENC   =      -243.81074202
  -exchange      EXHF   =         0.00000000
  -V(xc)+E(xc)   XCENC  =        21.98588535
  PAW double counting   =       117.05815612     -117.66307307
  entropy T*S    EENTRO =        -0.00000000
  eigenvalues    EBANDS =      -126.81619663
  atomic energy  EATOM  =       197.04175453
  Solvation  Ediel_sol  =         0.00000000
  ---------------------------------------------------
  free energy    TOTEN  =       -23.87175400 eV

  energy without entropy =      -23.87175400  energy(sigma->0) =      -23.87175400


--------------------------------------------------------------------------------------------------------




--------------------------------------- Iteration      1(   3)  ---------------------------------------


     EDDAV:  cpu time    0.1687: real time    0.1714
       DOS:  cpu time    0.0002: real time    0.0002
    --------------------------------------------
      LOOP:  cpu time    0.1689: real time    0.1716

 eigenvalue-minimisations  :    64
 total energy-change (2. order) :-0.3478208E+01  (-0.3478208E+01)
 number of electron       8.0000000 magnetization 
 augmentation part        8.0000000 magnetization 

 Free energy of the ion-electron system (eV)
  ---------------------------------------------------
  alpha Z        PSCENC =         0.24030905
  Ewald energy   TEWEN  =       128.09215268
  -Hartree energ DENC   =      -243.81074202
  -exchange      EXHF   =         0.00000000
  -V(xc)+E(xc)   XCENC  =        21.98588535
  PAW double counting   =       117.05815612     -117.66307307
  entropy T*S    EENTRO =        -0.00000000
  eigenvalues    EBANDS =      -130.29440485
  atomic energy  EATOM  =       197.04175453
  Solvation  Ediel_sol  =         0.00000000
  ---------------------------------------------------
  free energy    TOTEN  =       -27.34996222 eV

  energy without entropy =      -27.34996222  energy(sigma->0) =      -27.34996222


--------------------------------------------------------------------------------------------------------




--------------------------------------- Iteration      1(   4)  ---------------------------------------


     EDDAV:  cpu time    0.2686: real time    0.2740
       DOS:  cpu time    0.0002: real time    0.0002
    --------------------------------------------
      LOOP:  cpu time    0.2688: real time    0.2742

 eigenvalue-minimisations  :   128
 total energy-change (2. order) :-0.1371586E+00  (-0.1371586E+00)
 number of electron       8.0000000 magnetization 
 augmentation part        8.0000000 magnetization 

 Free energy of the ion-electron system (eV)
  ---------------------------------------------------
  alpha Z        PSCENC =         0.24030905
  Ewald energy   TEWEN  =       128.09215268
  -Hartree energ DENC   =      -243.81074202
  -exchange      EXHF   =         0.00000000
  -V(xc)+E(xc)   XCENC  =        21.98588535
  PAW double counting   =       117.05815612     -117.66307307
  entropy T*S    EENTRO =        -0.00000000
  eigenvalues    EBANDS =      -130.43156348
  atomic energy  EATOM  =       197.04175453
  Solvation  Ediel_sol  =         0.00000000
  ---------------------------------------------------
  free energy    TOTEN  =       -27.48712085 eV

  energy without entropy =      -27.48712085  energy(sigma->0) =      -27.48712085


--------------------------------------------------------------------------------------------------------




--------------------------------------- Iteration      1(   5)  ---------------------------------------


     EDDAV:  cpu time    0.2151: real time    0.2203
       DOS:  cpu time    0.0002: real time    0.0002
    CHARGE:  cpu time    0.0228: real time    0.0232
    MIXING:  cpu time    0.0048: real time    0.0050
    --------------------------------------------
      LOOP:  cpu time    0.2430: real time    0.2487

 eigenvalue-minimisations  :    96
 total energy-change (2. order) :-0.4198568E-04  (-0.4198574E-04)
 number of electron       8.0000001 magnetization 
 augmentation part        0.2237365 magnetization 

 Broyden mixing:
  rms(total) = 0.86435E+00    rms(broyden)= 0.86414E+00
  rms(prec ) = 0.12233E+01
  weight for this iteration     100.00

 Free energy of the ion-electron system (eV)
  ---------------------------------------------------
  alpha Z        PSCENC =         0.24030905
  Ewald energy   TEWEN  =       128.09215268
  -Hartree energ DENC   =      -243.81074202
  -exchange      EXHF   =         0.00000000
  -V(xc)+E(xc)   XCENC  =        21.98588535
  PAW double counting   =       117.05815612     -117.66307307
  entropy T*S    EENTRO =        -0.00000000
  eigenvalues    EBANDS =      -130.43160547
  atomic energy  EATOM  =       197.04175453
  Solvation  Ediel_sol  =         0.00000000
  ---------------------------------------------------
  free energy    TOTEN  =       -27.48716283 eV

  energy without entropy =      -27.48716283  energy(sigma->0) =      -27.48716283


--------------------------------------------------------------------------------------------------------




--------------------------------------- Iteration      1(   6)  ---------------------------------------


    POTLOK:  cpu time    0.1729: real time    0.1767
    SETDIJ:  cpu time    0.0019: real time    0.0018
    EDDIAG:  cpu time    0.0490: real time    0.0592
  RMM-DIIS:  cpu time    0.1762: real time    0.1823
    ORTHCH:  cpu time    0.0017: real time    0.0018
       DOS:  cpu time    0.0002: real time    0.0002
    CHARGE:  cpu time    0.0208: real time    0.0212
    MIXING:  cpu time    0.0058: real time    0.0075
    --------------------------------------------
      LOOP:  cpu time    0.4285: real time    0.4508

 eigenvalue-minimisations  :    64
 total energy-change (2. order) : 0.2844491E+01  (-0.5256902E+00)
 number of electron       8.0000000 magnetization 
 augmentation part        0.1972006 magnetization 

 Broyden mixing:
  rms(total) = 0.42623E+00    rms(broyden)= 0.42614E+00
  rms(prec ) = 0.55224E+00
  weight for this iteration     100.00

 eigenvalues of (default mixing * dielectric matrix)
  average eigenvalue GAMMA=   1.3022
  1.3022

 Free energy of the ion-electron system (eV)
  ---------------------------------------------------
  alpha Z        PSCENC =         0.24030905
  Ewald energy   TEWEN  =       128.09215268
  -Hartree energ DENC   =      -263.37268336
  -exchange      EXHF   =         0.00000000
  -V(xc)+E(xc)   XCENC  =        23.17329912
  PAW double counting   =       237.01008751     -237.78754312
  entropy T*S    EENTRO =        -0.00000000
  eigenvalues    EBANDS =      -109.04004827
  atomic energy  EATOM  =       197.04175453
  Solvation  Ediel_sol  =         0.00000000
  ---------------------------------------------------
  free energy    TOTEN  =       -24.64267186 eV

  energy without entropy =      -24.64267186  energy(sigma->0) =      -24.64267186


--------------------------------------------------------------------------------------------------------




--------------------------------------- Iteration      1(   7)  ---------------------------------------


    POTLOK:  cpu time    0.1658: real time    0.1706
    SETDIJ:  cpu time    0.0015: real time    0.0016
    EDDIAG:  cpu time    0.0452: real time    0.0468
  RMM-DIIS:  cpu time    0.1774: real time    0.1842
    ORTHCH:  cpu time    0.0015: real time    0.0016
       DOS:  cpu time    0.0005: real time    0.0006
    CHARGE:  cpu time    0.0201: real time    0.0213
    MIXING:  cpu time    0.0052: real time    0.0053
    --------------------------------------------
      LOOP:  cpu time    0.4173: real time    0.4320

 eigenvalue-minimisations  :    64
 total energy-change (2. order) : 0.4834742E+00  (-0.1172828E+00)
 number of electron       8.0000000 magnetization 
 augmentation part        0.1868789 magnetization 

 Broyden mixing:
  rms(total) = 0.22693E+00    rms(broyden)= 0.22687E+00
  rms(prec ) = 0.27432E+00
  weight for this iteration     100.00

 eigenvalues of (default mixing * dielectric matrix)
  average eigenvalue GAMMA=   1.8413
  1.4518  2.2307

 Free energy of the ion-electron system (eV)
  ---------------------------------------------------
  alpha Z        PSCENC =         0.24030905
  Ewald energy   TEWEN  =       128.09215268
  -Hartree energ DENC   =      -274.88096532
  -exchange      EXHF   =         0.00000000
  -V(xc)+E(xc)   XCENC  =        24.02046744
  PAW double counting   =       361.28136304     -362.09680690
  entropy T*S    EENTRO =        -0.00000000
  eigenvalues    EBANDS =       -97.85747216
  atomic energy  EATOM  =       197.04175453
  Solvation  Ediel_sol  =         0.00000000
  ---------------------------------------------------
  free energy    TOTEN  =       -24.15919764 eV

  energy without entropy =      -24.15919764  energy(sigma->0) =      -24.15919764


--------------------------------------------------------------------------------------------------------




--------------------------------------- Iteration      1(   8)  ---------------------------------------


    POTLOK:  cpu time    0.1606: real time    0.1662
    SETDIJ:  cpu time    0.0017: real time    0.0017
    EDDIAG:  cpu time    0.0438: real time    0.0455
  RMM-DIIS:  cpu time    0.1779: real time    0.1847
    ORTHCH:  cpu time    0.0015: real time    0.0015
       DOS:  cpu time    0.0002: real time    0.0002
    CHARGE:  cpu time    0.0206: real time    0.0218
    MIXING:  cpu time    0.0053: real time    0.0054
    --------------------------------------------
      LOOP:  cpu time    0.4116: real time    0.4271

 eigenvalue-minimisations  :    64
 total energy-change (2. order) : 0.1457692E+00  (-0.1622691E-01)
 number of electron       8.0000000 magnetization 
 augmentation part        0.1855082 magnetization 

 Broyden mixing:
  rms(total) = 0.22671E-01    rms(broyden)= 0.22650E-01
  rms(prec ) = 0.52383E-01
  weight for this iteration     100.00

 eigenvalues of (default mixing * dielectric matrix)
  average eigenvalue GAMMA=   1.5459
  2.2482  0.9870  1.4025

 Free energy of the ion-electron system (eV)
  ---------------------------------------------------
  alpha Z        PSCENC =         0.24030905
  Ewald energy   TEWEN  =       128.09215268
  -Hartree energ DENC   =      -280.28090213
  -exchange      EXHF   =         0.00000000
  -V(xc)+E(xc)   XCENC  =        24.55628226
  PAW double counting   =       468.64396045     -469.42764901
  entropy T*S    EENTRO =        -0.00000000
  eigenvalues    EBANDS =       -92.87933624
  atomic energy  EATOM  =       197.04175453
  Solvation  Ediel_sol  =         0.00000000
  ---------------------------------------------------
  free energy    TOTEN  =       -24.01342842 eV

  energy without entropy =      -24.01342842  energy(sigma->0) =      -24.01342842


--------------------------------------------------------------------------------------------------------




--------------------------------------- Iteration      1(   9)  ---------------------------------------


    POTLOK:  cpu time    0.1607: real time    0.1656
    SETDIJ:  cpu time    0.0017: real time    0.0017
    EDDIAG:  cpu time    0.0440: real time    0.0469
  RMM-DIIS:  cpu time    0.1781: real time    0.1845
    ORTHCH:  cpu time    0.0016: real time    0.0017
       DOS:  cpu time    0.0002: real time    0.0002
    CHARGE:  cpu time    0.0219: real time    0.0229
    MIXING:  cpu time    0.0055: real time    0.0055
    --------------------------------------------
      LOOP:  cpu time    0.4137: real time    0.4290

 eigenvalue-minimisations  :    64
 total energy-change (2. order) : 0.5583843E-02  (-0.1091515E-02)
 number of electron       8.0000000 magnetization 
 augmentation part        0.1849502 magnetization 

 Broyden mixing:
  rms(total) = 0.19447E-01    rms(broyden)= 0.19443E-01
  rms(prec ) = 0.40152E-01
  weight for this iteration     100.00

 eigenvalues of (default mixing * dielectric matrix)
  average eigenvalue GAMMA=   2.0930
  3.0748  2.9244  1.0024  1.3704

 Free energy of the ion-electron system (eV)
  ---------------------------------------------------
  alpha Z        PSCENC =         0.24030905
  Ewald energy   TEWEN  =       128.09215268
  -Hartree energ DENC   =      -281.52614460
  -exchange      EXHF   =         0.00000000
  -V(xc)+E(xc)   XCENC  =        24.62467788
  PAW double counting   =       471.71962730     -472.50600512
  entropy T*S    EENTRO =        -0.00000000
  eigenvalues    EBANDS =       -91.69421631
  atomic energy  EATOM  =       197.04175453
  Solvation  Ediel_sol  =         0.00000000
  ---------------------------------------------------
  free energy    TOTEN  =       -24.00784458 eV

  energy without entropy =      -24.00784458  energy(sigma->0) =      -24.00784458


--------------------------------------------------------------------------------------------------------




--------------------------------------- Iteration      1(  10)  ---------------------------------------


    POTLOK:  cpu time    0.1538: real time    0.1587
    SETDIJ:  cpu time    0.0018: real time    0.0018
    EDDIAG:  cpu time    0.0437: real time    0.0453
  RMM-DIIS:  cpu time    0.1780: real time    0.1850
    ORTHCH:  cpu time    0.0015: real time    0.0015
       DOS:  cpu time    0.0002: real time    0.0002
    CHARGE:  cpu time    0.0205: real time    0.0212
    MIXING:  cpu time    0.0061: real time    0.0072
    --------------------------------------------
      LOOP:  cpu time    0.4055: real time    0.4209

 eigenvalue-minimisations  :    64
 total energy-change (2. order) : 0.6228468E-02  (-0.2439530E-02)
 number of electron       8.0000000 magnetization 
 augmentation part        0.1839126 magnetization 

 Broyden mixing:
  rms(total) = 0.27561E-01    rms(broyden)= 0.27560E-01
  rms(prec ) = 0.35155E-01
  weight for this iteration     100.00

 eigenvalues of (default mixing * dielectric matrix)
  average eigenvalue GAMMA=   1.7843
  3.0750  2.4243  1.2208  1.2208  0.9804

 Free energy of the ion-electron system (eV)
  ---------------------------------------------------
  alpha Z        PSCENC =         0.24030905
  Ewald energy   TEWEN  =       128.09215268
  -Hartree energ DENC   =      -283.71636976
  -exchange      EXHF   =         0.00000000
  -V(xc)+E(xc)   XCENC  =        24.69500766
  PAW double counting   =       456.06361669     -456.85348115
  entropy T*S    EENTRO =        -0.00000000
  eigenvalues    EBANDS =       -89.56460582
  atomic energy  EATOM  =       197.04175453
  Solvation  Ediel_sol  =         0.00000000
  ---------------------------------------------------
  free energy    TOTEN  =       -24.00161611 eV

  energy without entropy =      -24.00161611  energy(sigma->0) =      -24.00161611


--------------------------------------------------------------------------------------------------------




--------------------------------------- Iteration      1(  11)  ---------------------------------------


    POTLOK:  cpu time    0.1508: real time    0.1571
    SETDIJ:  cpu time    0.0017: real time    0.0017
    EDDIAG:  cpu time    0.0451: real time    0.0461
  RMM-DIIS:  cpu time    0.1760: real time    0.1827
    ORTHCH:  cpu time    0.0015: real time    0.0015
       DOS:  cpu time    0.0002: real time    0.0002
    CHARGE:  cpu time    0.0223: real time    0.0229
    MIXING:  cpu time    0.0058: real time    0.0059
    --------------------------------------------
      LOOP:  cpu time    0.4034: real time    0.4182

 eigenvalue-minimisations  :    64
 total energy-change (2. order) :-0.7332181E-03  (-0.8023473E-03)
 number of electron       8.0000000 magnetization 
 augmentation part        0.1842741 magnetization 

 Broyden mixing:
  rms(total) = 0.82269E-02    rms(broyden)= 0.82238E-02
  rms(prec ) = 0.14041E-01
  weight for this iteration     100.00

 eigenvalues of (default mixing * dielectric matrix)
  average eigenvalue GAMMA=   2.2832
  4.8673  3.1000  2.4299  1.2796  1.0112  1.0112

 Free energy of the ion-electron system (eV)
  ---------------------------------------------------
  alpha Z        PSCENC =         0.24030905
  Ewald energy   TEWEN  =       128.09215268
  -Hartree energ DENC   =      -283.60976158
  -exchange      EXHF   =         0.00000000
  -V(xc)+E(xc)   XCENC  =        24.70906901
  PAW double counting   =       465.07336460     -465.85575964
  entropy T*S    EENTRO =        -0.00000000
  eigenvalues    EBANDS =       -89.69347798
  atomic energy  EATOM  =       197.04175453
  Solvation  Ediel_sol  =         0.00000000
  ---------------------------------------------------
  free energy    TOTEN  =       -24.00234933 eV

  energy without entropy =      -24.00234933  energy(sigma->0) =      -24.00234933


--------------------------------------------------------------------------------------------------------




--------------------------------------- Iteration      1(  12)  ---------------------------------------


    POTLOK:  cpu time    0.1443: real time    0.1493
    SETDIJ:  cpu time    0.0016: real time    0.0016
    EDDIAG:  cpu time    0.0435: real time    0.0452
  RMM-DIIS:  cpu time    0.1793: real time    0.1853
    ORTHCH:  cpu time    0.0016: real time    0.0027
       DOS:  cpu time    0.0005: real time    0.0005
    CHARGE:  cpu time    0.0204: real time    0.0214
    MIXING:  cpu time    0.0060: real time    0.0061
    --------------------------------------------
      LOOP:  cpu time    0.3971: real time    0.4121

 eigenvalue-minimisations  :    64
 total energy-change (2. order) :-0.9570035E-02  (-0.3540084E-03)
 number of electron       8.0000000 magnetization 
 augmentation part        0.1844941 magnetization 

 Broyden mixing:
  rms(total) = 0.12458E-01    rms(broyden)= 0.12457E-01
  rms(prec ) = 0.16278E-01
  weight for this iteration     100.00

 eigenvalues of (default mixing * dielectric matrix)
  average eigenvalue GAMMA=   2.0203
  4.8320  2.9467  2.4306  1.2327  1.0041  1.0041  0.6917

 Free energy of the ion-electron system (eV)
  ---------------------------------------------------
  alpha Z        PSCENC =         0.24030905
  Ewald energy   TEWEN  =       128.09215268
  -Hartree energ DENC   =      -283.81128961
  -exchange      EXHF   =         0.00000000
  -V(xc)+E(xc)   XCENC  =        24.70086805
  PAW double counting   =       462.09747566     -462.87874005
  entropy T*S    EENTRO =        -0.00000000
  eigenvalues    EBANDS =       -89.49444967
  atomic energy  EATOM  =       197.04175453
  Solvation  Ediel_sol  =         0.00000000
  ---------------------------------------------------
  free energy    TOTEN  =       -24.01191937 eV

  energy without entropy =      -24.01191937  energy(sigma->0) =      -24.01191937


--------------------------------------------------------------------------------------------------------




--------------------------------------- Iteration      1(  13)  ---------------------------------------


    POTLOK:  cpu time    0.1458: real time    0.1507
    SETDIJ:  cpu time    0.0015: real time    0.0017
    EDDIAG:  cpu time    0.0447: real time    0.0456
  RMM-DIIS:  cpu time    0.1796: real time    0.1847
    ORTHCH:  cpu time    0.0017: real time    0.0017
       DOS:  cpu time    0.0003: real time    0.0003
    CHARGE:  cpu time    0.0209: real time    0.0213
    MIXING:  cpu time    0.0061: real time    0.0063
    --------------------------------------------
      LOOP:  cpu time    0.4006: real time    0.4122

 eigenvalue-minimisations  :    64
 total energy-change (2. order) :-0.4751155E-03  (-0.9212856E-04)
 number of electron       8.0000000 magnetization 
 augmentation part        0.1842630 magnetization 

 Broyden mixing:
  rms(total) = 0.51929E-02    rms(broyden)= 0.51928E-02
  rms(prec ) = 0.70142E-02
  weight for this iteration     100.00

 eigenvalues of (default mixing * dielectric matrix)
  average eigenvalue GAMMA=   2.4330
  6.1582  4.1155  2.5084  2.3791  1.2140  1.2140  0.9961  0.8783

 Free energy of the ion-electron system (eV)
  ---------------------------------------------------
  alpha Z        PSCENC =         0.24030905
  Ewald energy   TEWEN  =       128.09215268
  -Hartree energ DENC   =      -283.99184976
  -exchange      EXHF   =         0.00000000
  -V(xc)+E(xc)   XCENC  =        24.70602003
  PAW double counting   =       461.91226442     -462.69585320
  entropy T*S    EENTRO =        -0.00000000
  eigenvalues    EBANDS =       -89.31719223
  atomic energy  EATOM  =       197.04175453
  Solvation  Ediel_sol  =         0.00000000
  ---------------------------------------------------
  free energy    TOTEN  =       -24.01239448 eV

  energy without entropy =      -24.01239448  energy(sigma->0) =      -24.01239448


--------------------------------------------------------------------------------------------------------




--------------------------------------- Iteration      1(  14)  ---------------------------------------


    POTLOK:  cpu time    0.1429: real time    0.1471
    SETDIJ:  cpu time    0.0013: real time    0.0016
    EDDIAG:  cpu time    0.0429: real time    0.0445
  RMM-DIIS:  cpu time    0.1788: real time    0.1849
    ORTHCH:  cpu time    0.0018: real time    0.0018
       DOS:  cpu time    0.0003: real time    0.0003
    CHARGE:  cpu time    0.0201: real time    0.0210
    MIXING:  cpu time    0.0063: real time    0.0065
    --------------------------------------------
      LOOP:  cpu time    0.3945: real time    0.4078

 eigenvalue-minimisations  :    64
 total energy-change (2. order) :-0.2852358E-02  (-0.1599995E-03)
 number of electron       8.0000000 magnetization 
 augmentation part        0.1841004 magnetization 

 Broyden mixing:
  rms(total) = 0.37543E-02    rms(broyden)= 0.37526E-02
  rms(prec ) = 0.48607E-02
  weight for this iteration     100.00

 eigenvalues of (default mixing * dielectric matrix)
  average eigenvalue GAMMA=   2.3358
  6.5028  4.1417  2.5439  2.4039  1.1849  1.1849  1.1464  0.9567  0.9567

 Free energy of the ion-electron system (eV)
  ---------------------------------------------------
  alpha Z        PSCENC =         0.24030905
  Ewald energy   TEWEN  =       128.09215268
  -Hartree energ DENC   =      -284.01676354
  -exchange      EXHF   =         0.00000000
  -V(xc)+E(xc)   XCENC  =        24.69690099
  PAW double counting   =       461.09449272     -461.87976533
  entropy T*S    EENTRO =        -0.00000000
  eigenvalues    EBANDS =       -89.28432793
  atomic energy  EATOM  =       197.04175453
  Solvation  Ediel_sol  =         0.00000000
  ---------------------------------------------------
  free energy    TOTEN  =       -24.01524684 eV

  energy without entropy =      -24.01524684  energy(sigma->0) =      -24.01524684


--------------------------------------------------------------------------------------------------------




--------------------------------------- Iteration      1(  15)  ---------------------------------------


    POTLOK:  cpu time    0.1446: real time    0.1484
    SETDIJ:  cpu time    0.0017: real time    0.0018
    EDDIAG:  cpu time    0.0438: real time    0.0450
  RMM-DIIS:  cpu time    0.1810: real time    0.1865
    ORTHCH:  cpu time    0.0015: real time    0.0015
       DOS:  cpu time    0.0002: real time    0.0002
    CHARGE:  cpu time    0.0207: real time    0.0216
    MIXING:  cpu time    0.0064: real time    0.0064
    --------------------------------------------
      LOOP:  cpu time    0.3998: real time    0.4112

 eigenvalue-minimisations  :    64
 total energy-change (2. order) :-0.2135372E-03  (-0.5893333E-05)
 number of electron       8.0000000 magnetization 
 augmentation part        0.1840824 magnetization 

 Broyden mixing:
  rms(total) = 0.18507E-02    rms(broyden)= 0.18506E-02
  rms(prec ) = 0.24093E-02
  weight for this iteration     100.00

 eigenvalues of (default mixing * dielectric matrix)
  average eigenvalue GAMMA=   2.5591
  7.6020  4.8917  2.9804  2.5860  2.1228  1.2641  1.2641  1.0033  0.9762  0.8999

 Free energy of the ion-electron system (eV)
  ---------------------------------------------------
  alpha Z        PSCENC =         0.24030905
  Ewald energy   TEWEN  =       128.09215268
  -Hartree energ DENC   =      -283.98355076
  -exchange      EXHF   =         0.00000000
  -V(xc)+E(xc)   XCENC  =        24.69599725
  PAW double counting   =       461.27157320     -462.05604940
  entropy T*S    EENTRO =        -0.00000000
  eigenvalues    EBANDS =       -89.31764692
  atomic energy  EATOM  =       197.04175453
  Solvation  Ediel_sol  =         0.00000000
  ---------------------------------------------------
  free energy    TOTEN  =       -24.01546038 eV

  energy without entropy =      -24.01546038  energy(sigma->0) =      -24.01546038


--------------------------------------------------------------------------------------------------------




--------------------------------------- Iteration      1(  16)  ---------------------------------------


    POTLOK:  cpu time    0.1447: real time    0.1491
    SETDIJ:  cpu time    0.0017: real time    0.0017
    EDDIAG:  cpu time    0.0433: real time    0.0451
  RMM-DIIS:  cpu time    0.1781: real time    0.1839
    ORTHCH:  cpu time    0.0020: real time    0.0021
       DOS:  cpu time    0.0003: real time    0.0003
    CHARGE:  cpu time    0.0202: real time    0.0211
    MIXING:  cpu time    0.0067: real time    0.0067
    --------------------------------------------
      LOOP:  cpu time    0.3969: real time    0.4101

 eigenvalue-minimisations  :    64
 total energy-change (2. order) :-0.2166044E-03  (-0.1835239E-04)
 number of electron       8.0000000 magnetization 
 augmentation part        0.1841590 magnetization 

 Broyden mixing:
  rms(total) = 0.13054E-02    rms(broyden)= 0.13048E-02
  rms(prec ) = 0.17307E-02
  weight for this iteration     100.00

 eigenvalues of (default mixing * dielectric matrix)
  average eigenvalue GAMMA=   2.4822
  7.7561  4.8269  3.4776  2.4074  2.2982  1.2749  1.2749  1.0570  1.0570  0.9374
  0.9374

 Free energy of the ion-electron system (eV)
  ---------------------------------------------------
  alpha Z        PSCENC =         0.24030905
  Ewald energy   TEWEN  =       128.09215268
  -Hartree energ DENC   =      -283.94237381
  -exchange      EXHF   =         0.00000000
  -V(xc)+E(xc)   XCENC  =        24.69502624
  PAW double counting   =       461.35180604     -462.13554066
  entropy T*S    EENTRO =        -0.00000000
  eigenvalues    EBANDS =       -89.35881106
  atomic energy  EATOM  =       197.04175453
  Solvation  Ediel_sol  =         0.00000000
  ---------------------------------------------------
  free energy    TOTEN  =       -24.01567698 eV

  energy without entropy =      -24.01567698  energy(sigma->0) =      -24.01567698


--------------------------------------------------------------------------------------------------------




--------------------------------------- Iteration      1(  17)  ---------------------------------------


    POTLOK:  cpu time    0.1461: real time    0.1508
    SETDIJ:  cpu time    0.0017: real time    0.0017
    EDDIAG:  cpu time    0.0428: real time    0.0446
  RMM-DIIS:  cpu time    0.1794: real time    0.1842
    ORTHCH:  cpu time    0.0016: real time    0.0016
       DOS:  cpu time    0.0005: real time    0.0006
    CHARGE:  cpu time    0.0204: real time    0.0211
    MIXING:  cpu time    0.0069: real time    0.0069
    --------------------------------------------
      LOOP:  cpu time    0.3993: real time    0.4115

 eigenvalue-minimisations  :    64
 total energy-change (2. order) :-0.2092258E-04  (-0.3627573E-05)
 number of electron       8.0000000 magnetization 
 augmentation part        0.1841213 magnetization 

 Broyden mixing:
  rms(total) = 0.19211E-03    rms(broyden)= 0.19204E-03
  rms(prec ) = 0.29464E-03
  weight for this iteration     100.00

 eigenvalues of (default mixing * dielectric matrix)
  average eigenvalue GAMMA=   2.5785
  8.3871  5.2393  3.8495  2.6040  2.4631  1.8998  1.3086  1.3086  1.0085  1.0085
  0.9722  0.8929

 Free energy of the ion-electron system (eV)
  ---------------------------------------------------
  alpha Z        PSCENC =         0.24030905
  Ewald energy   TEWEN  =       128.09215268
  -Hartree energ DENC   =      -283.99190999
  -exchange      EXHF   =         0.00000000
  -V(xc)+E(xc)   XCENC  =        24.69730882
  PAW double counting   =       461.35228674     -462.13647494
  entropy T*S    EENTRO =        -0.00000000
  eigenvalues    EBANDS =       -89.31112479
  atomic energy  EATOM  =       197.04175453
  Solvation  Ediel_sol  =         0.00000000
  ---------------------------------------------------
  free energy    TOTEN  =       -24.01569791 eV

  energy without entropy =      -24.01569791  energy(sigma->0) =      -24.01569791


--------------------------------------------------------------------------------------------------------




--------------------------------------- Iteration      1(  18)  ---------------------------------------


    POTLOK:  cpu time    0.1495: real time    0.1535
    SETDIJ:  cpu time    0.0014: real time    0.0016
    EDDIAG:  cpu time    0.0437: real time    0.0449
  RMM-DIIS:  cpu time    0.1658: real time    0.1713
    ORTHCH:  cpu time    0.0016: real time    0.0017
       DOS:  cpu time    0.0002: real time    0.0002
    CHARGE:  cpu time    0.0205: real time    0.0212
    MIXING:  cpu time    0.0070: real time    0.0072
    --------------------------------------------
      LOOP:  cpu time    0.3896: real time    0.4016

 eigenvalue-minimisations  :    48
 total energy-change (2. order) :-0.1470436E-04  (-0.1101206E-06)
 number of electron       8.0000000 magnetization 
 augmentation part        0.1841199 magnetization 

 Broyden mixing:
  rms(total) = 0.79311E-04    rms(broyden)= 0.79269E-04
  rms(prec ) = 0.12278E-03
  weight for this iteration     100.00

 eigenvalues of (default mixing * dielectric matrix)
  average eigenvalue GAMMA=   2.5844
  8.4962  5.4163  3.8016  3.2430  2.4851  2.2328  1.3044  1.3044  1.2757  1.1667
  0.8963  0.9874  0.9874

 Free energy of the ion-electron system (eV)
  ---------------------------------------------------
  alpha Z        PSCENC =         0.24030905
  Ewald energy   TEWEN  =       128.09215268
  -Hartree energ DENC   =      -283.98192594
  -exchange      EXHF   =         0.00000000
  -V(xc)+E(xc)   XCENC  =        24.69659278
  PAW double counting   =       461.26587756     -462.05002472
  entropy T*S    EENTRO =        -0.00000000
  eigenvalues    EBANDS =       -89.32044855
  atomic energy  EATOM  =       197.04175453
  Solvation  Ediel_sol  =         0.00000000
  ---------------------------------------------------
  free energy    TOTEN  =       -24.01571261 eV

  energy without entropy =      -24.01571261  energy(sigma->0) =      -24.01571261


--------------------------------------------------------------------------------------------------------




--------------------------------------- Iteration      1(  19)  ---------------------------------------


    POTLOK:  cpu time    0.1499: real time    0.1537
    SETDIJ:  cpu time    0.0017: real time    0.0018
    EDDIAG:  cpu time    0.0434: real time    0.0446
  RMM-DIIS:  cpu time    0.1415: real time    0.1472
    ORTHCH:  cpu time    0.0015: real time    0.0015
       DOS:  cpu time    0.0002: real time    0.0002
    CHARGE:  cpu time    0.0233: real time    0.0241
    MIXING:  cpu time    0.0073: real time    0.0075
    --------------------------------------------
      LOOP:  cpu time    0.3687: real time    0.3805

 eigenvalue-minimisations  :    48
 total energy-change (2. order) :-0.2843831E-05  (-0.3022919E-07)
 number of electron       8.0000000 magnetization 
 augmentation part        0.1841199 magnetization 

 Broyden mixing:
  rms(total) = 0.72368E-04    rms(broyden)= 0.72351E-04
  rms(prec ) = 0.94422E-04
  weight for this iteration     100.00

 eigenvalues of (default mixing * dielectric matrix)
  average eigenvalue GAMMA=   2.5543
  8.5257  5.5225  4.0436  3.1145  2.5103  2.5103  2.0971  1.2961  1.2961  1.0264
  0.9926  0.9926  0.9163  0.9163

 Free energy of the ion-electron system (eV)
  ---------------------------------------------------
  alpha Z        PSCENC =         0.24030905
  Ewald energy   TEWEN  =       128.09215268
  -Hartree energ DENC   =      -283.97822756
  -exchange      EXHF   =         0.00000000
  -V(xc)+E(xc)   XCENC  =        24.69630876
  PAW double counting   =       461.24721389     -462.03134952
  entropy T*S    EENTRO =        -0.00000000
  eigenvalues    EBANDS =       -89.32387728
  atomic energy  EATOM  =       197.04175453
  Solvation  Ediel_sol  =         0.00000000
  ---------------------------------------------------
  free energy    TOTEN  =       -24.01571545 eV

  energy without entropy =      -24.01571545  energy(sigma->0) =      -24.01571545


--------------------------------------------------------------------------------------------------------




--------------------------------------- Iteration      1(  20)  ---------------------------------------


    POTLOK:  cpu time    0.1546: real time    0.1595
    SETDIJ:  cpu time    0.0017: real time    0.0018
    EDDIAG:  cpu time    0.0438: real time    0.0457
  RMM-DIIS:  cpu time    0.1414: real time    0.1483
    ORTHCH:  cpu time    0.0018: real time    0.0019
       DOS:  cpu time    0.0005: real time    0.0006
    CHARGE:  cpu time    0.0208: real time    0.0213
    MIXING:  cpu time    0.0076: real time    0.0078
    --------------------------------------------
      LOOP:  cpu time    0.3723: real time    0.3867

 eigenvalue-minimisations  :    48
 total energy-change (2. order) :-0.1385868E-05  (-0.1110806E-07)
 number of electron       8.0000000 magnetization 
 augmentation part        0.1841209 magnetization 

 Broyden mixing:
  rms(total) = 0.17269E-04    rms(broyden)= 0.17263E-04
  rms(prec ) = 0.23518E-04
  weight for this iteration     100.00

 eigenvalues of (default mixing * dielectric matrix)
  average eigenvalue GAMMA=   2.4925
  8.5450  5.5737  4.1240  3.5640  2.4604  2.4604  2.0552  1.2985  1.2985  1.0672
  1.0672  1.0605  0.8906  0.9611  0.9611

 Free energy of the ion-electron system (eV)
  ---------------------------------------------------
  alpha Z        PSCENC =         0.24030905
  Ewald energy   TEWEN  =       128.09215268
  -Hartree energ DENC   =      -283.97684178
  -exchange      EXHF   =         0.00000000
  -V(xc)+E(xc)   XCENC  =        24.69626729
  PAW double counting   =       461.25544848     -462.03955520
  entropy T*S    EENTRO =        -0.00000000
  eigenvalues    EBANDS =       -89.32525189
  atomic energy  EATOM  =       197.04175453
  Solvation  Ediel_sol  =         0.00000000
  ---------------------------------------------------
  free energy    TOTEN  =       -24.01571684 eV

  energy without entropy =      -24.01571684  energy(sigma->0) =      -24.01571684


--------------------------------------------------------------------------------------------------------




--------------------------------------- Iteration      1(  21)  ---------------------------------------


    POTLOK:  cpu time    0.1530: real time    0.1578
    SETDIJ:  cpu time    0.0014: real time    0.0016
    EDDIAG:  cpu time    0.0438: real time    0.0513
  RMM-DIIS:  cpu time    0.1246: real time    0.1281
    ORTHCH:  cpu time    0.0016: real time    0.0016
       DOS:  cpu time    0.0002: real time    0.0002
    --------------------------------------------
      LOOP:  cpu time    0.3246: real time    0.3405

 eigenvalue-minimisations  :    32
 total energy-change (2. order) :-0.1531700E-06  ( 0.0000000E+00)
 number of electron       8.0000000 magnetization 
 augmentation part        0.1841209 magnetization 

 Free energy of the ion-electron system (eV)
  ---------------------------------------------------
  alpha Z        PSCENC =         0.24030905
  Ewald energy   TEWEN  =       128.09215268
  -Hartree energ DENC   =      -283.97685810
  -exchange      EXHF   =         0.00000000
  -V(xc)+E(xc)   XCENC  =        24.69626804
  PAW double counting   =       461.25593487     -462.04004261
  entropy T*S    EENTRO =        -0.00000000
  eigenvalues    EBANDS =       -89.32523545
  atomic energy  EATOM  =       197.04175453
  Solvation  Ediel_sol  =         0.00000000
  ---------------------------------------------------
  free energy    TOTEN  =       -24.01571699 eV

  energy without entropy =      -24.01571699  energy(sigma->0) =      -24.01571699


--------------------------------------------------------------------------------------------------------




 average (electrostatic) potential at core
  the test charge radii are     0.5201  0.6991
  (the norm of the test charge is              1.0000)
       1 -41.5799       2 -41.3214       3 -41.4322       4 -41.5431       5 -57.9889
 
 
 
 E-fermi :  -8.2918     XC(G=0):  -0.6966     alpha+bet : -0.2090


 k-point     1 :       0.2500    0.2500    0.2500
  band No.  band energies     occupation 
      1     -16.8527      2.00000
      2      -9.3644      2.00000
      3      -9.2293      2.00000
      4      -9.2159      2.00000
      5      -0.3233      0.00000
      6       0.5634      0.00000
      7       0.6674      0.00000
      8       0.7000      0.00000

 k-point     2 :      -0.2500    0.2500    0.2500
  band No.  band energies     occupation 
      1     -16.8528      2.00000
      2      -9.3645      2.00000
      3      -9.2294      2.00000
      4      -9.2161      2.00000
      5      -0.3199      0.00000
      6       0.5508      0.00000
      7       0.6572      0.00000
      8       0.6945      0.00000

 k-point     3 :       0.2500   -0.2500    0.2500
  band No.  band energies     occupation 
      1     -16.8528      2.00000
      2      -9.3645      2.00000
      3      -9.2294      2.00000
      4      -9.2160      2.00000
      5      -0.3211      0.00000
      6       0.5542      0.00000
      7       0.6624      0.00000
      8       0.6957      0.00000

 k-point     4 :      -0.2500   -0.2500    0.2500
  band No.  band energies     occupation 
      1     -16.8528      2.00000
      2      -9.3645      2.00000
      3      -9.2294      2.00000
      4      -9.2160      2.00000
      5      -0.3216      0.00000
      6       0.5574      0.00000
      7       0.6637      0.00000
      8       0.6976      0.00000


--------------------------------------------------------------------------------------------------------


 soft charge-density along one line, spin component           1
         0         1         2         3         4         5         6         7         8         9
 total charge-density along one line
 
 pseudopotential strength for first ion, spin component:           1
 -2.342  -4.035  -0.001  -0.001   0.001
 -4.035  -6.868  -0.003  -0.004   0.002
 -0.001  -0.003  -0.337   0.002  -0.001
 -0.001  -0.004   0.002  -0.335  -0.001
  0.001   0.002  -0.001  -0.001  -0.338
 total augmentation occupancy for first ion, spin component:           1
  3.582  -0.644   0.240   0.345  -0.140
 -0.644   0.130  -0.044  -0.064   0.026
  0.240  -0.044   0.023   0.019  -0.008
  0.345  -0.064   0.019   0.037  -0.011
 -0.140   0.026  -0.008  -0.011   0.014


------------------------ aborting loop because EDIFF is reached ----------------------------------------


    CHARGE:  cpu time    0.0210: real time    0.0213
    FORLOC:  cpu time    0.0157: real time    0.0158
    FORNL :  cpu time    0.0229: real time    0.0231
    STRESS:  cpu time    0.1739: real time    0.1764
    FORCOR:  cpu time    0.1522: real time    0.1559
    FORHAR:  cpu time    0.0491: real time    0.0497
    MIXING:  cpu time    0.0073: real time    0.0074
    OFIELD:  cpu time    0.0001: real time    0.0000

  FORCE on cell =-STRESS in cart. coord.  units (eV):
  Direction    XX          YY          ZZ          XY          YZ          ZX
  --------------------------------------------------------------------------------------
  Alpha Z     0.24031     0.24031     0.24031
  Ewald      40.72609    42.93582    44.43023     0.37618     0.18677    -0.25621
  Hartree    93.35176    95.70128    94.92454     0.29074    -0.00349     0.08328
  E(xc)     -27.15368   -27.16978   -27.16127     0.00251    -0.00022    -0.00085
  Local    -193.27065  -197.62237  -197.62220    -0.68081    -0.10621     0.05724
  n-local   -15.71700   -15.81555   -15.84931     0.00416    -0.00791     0.00921
  augment     0.12213     0.11894     0.11266     0.00038    -0.00078     0.00105
  Kinetic   100.42085   101.27649   100.84583    -0.10123     0.01119     0.03719
  Fock        0.00000     0.00000     0.00000     0.00000     0.00000     0.00000
  -------------------------------------------------------------------------------------
  Total      -1.28019    -0.33486    -0.07920    -0.10808     0.07935    -0.06909
  in kB      -2.03465    -0.53220    -0.12588    -0.17178     0.12611    -0.10981
  external pressure =       -0.90 kB  Pullay stress =        0.00 kB

  kinetic pressure (ideal gas correction) =      0.00 kB
  total pressure  =     -0.90 kB
  Total+kin.    -2.035      -0.532      -0.126      -0.172       0.126      -0.110

 VOLUME and BASIS-vectors are now :
 -----------------------------------------------------------------------------
  energy-cutoff  :      400.00
  volume of cell :     1008.08
      direct lattice vectors                 reciprocal lattice vectors
    10.170357018  0.000000000  0.000000000     0.098324965 -0.001024101 -0.000802375
     0.103192196  9.907583307  0.000000000     0.000000000  0.100932787 -0.000065863
     0.081708299  0.006528316 10.004402387     0.000000000  0.000000000  0.099955995

  length of vectors
    10.170357018  9.908120690 10.004738177     0.098333572  0.100932809  0.099955995


 FORCES acting on ions
    electron-ion (+dipol)            ewald-force                    non-local-force                 convergence-correction
 -----------------------------------------------------------------------------------------------
   -.167E+02 0.289E+02 0.414E+02   0.186E+02 -.322E+02 -.460E+02   -.179E+01 0.305E+01 0.441E+01   0.165E-04 -.103E-04 -.202E-04
   0.512E+02 -.654E+01 0.280E+01   -.555E+02 0.712E+01 -.305E+01   0.510E+01 -.651E+00 0.275E+00   -.360E-04 0.459E-05 -.126E-05
   -.240E+02 -.466E+02 0.124E+01   0.263E+02 0.512E+02 -.136E+01   -.248E+01 -.478E+01 0.127E+00   0.174E-04 0.130E-04 -.340E-06
   -.122E+02 0.243E+02 -.455E+02   0.135E+02 -.270E+02 0.504E+02   -.129E+01 0.254E+01 -.480E+01   0.130E-04 -.817E-05 0.221E-04
   0.249E+01 -.578E+00 -.120E-01   -.292E+01 0.821E+00 0.362E-01   -.219E+00 0.343E+00 0.344E-01   0.289E-04 0.140E-04 0.135E-05
 -----------------------------------------------------------------------------------------------
   0.690E+00 -.507E+00 -.435E-01   0.178E-14 0.000E+00 -.139E-16   -.690E+00 0.507E+00 0.436E-01   0.398E-04 0.132E-04 0.168E-05
 
 
 POSITION                                       TOTAL-FORCE (eV/Angst)
 -----------------------------------------------------------------------------------
      5.54566      4.03392      3.60534         0.054660     -0.232658     -0.223244
      4.09143      4.76612      4.39118         0.757355     -0.071317      0.027337
      5.70927      5.60436      4.42600        -0.180042     -0.149416      0.009072
      5.45474      4.12351      5.38883         0.018975     -0.133556      0.128317
      5.20261      4.62335      4.45191        -0.651216      0.586607      0.058542
 -----------------------------------------------------------------------------------
    total drift:                               -0.000268     -0.000340      0.000025


--------------------------------------------------------------------------------------------------------



  FREE ENERGIE OF THE ION-ELECTRON SYSTEM (eV)
  ---------------------------------------------------
  free  energy   TOTEN  =       -24.01571699 eV

  energy  without entropy=      -24.01571699  energy(sigma->0) =      -24.01571699
 


--------------------------------------------------------------------------------------------------------


    POTLOK:  cpu time    0.1562: real time    0.1582


--------------------------------------------------------------------------------------------------------


           RANDOM_SEED =         172208435                0                0
           RANDOM_SEED =         172208435               30                0
   IONSTEP:  cpu time    0.0037: real time    0.0069

  ENERGY OF THE ELECTRON-ION-THERMOSTAT SYSTEM (eV)
  ---------------------------------------------------
% ion-electron   TOTEN  =       -24.015717  see above
  kinetic energy EKIN   =         0.000253
  kin. lattice  EKIN_LAT=         0.000000  (temperature    0.49 K)
  nose potential ES     =         0.000000
  nose kinetic   EPS    =         0.000000
  ---------------------------------------------------
  total energy   ETOTAL =       -24.015464 eV

  maximum distance moved by ions :      0.18E-03

    WAVPRE:  cpu time    0.0468: real time    0.0473
    FEWALD:  cpu time    0.0003: real time    0.0003
    ORTHCH:  cpu time    0.0094: real time    0.0095
     LOOP+:  cpu time    8.2397: real time    8.5405


--------------------------------------- Iteration      2(   1)  ---------------------------------------


    POTLOK:  cpu time    0.1538: real time    0.1565
    SETDIJ:  cpu time    0.0017: real time    0.0017
     EDDAV:  cpu time    0.1832: real time    0.1851
       DOS:  cpu time    0.0002: real time    0.0002
    CHARGE:  cpu time    0.0207: real time    0.0209
    MIXING:  cpu time    0.0062: real time    0.0072
    --------------------------------------------
      LOOP:  cpu time    0.3659: real time    0.3717

 eigenvalue-minimisations  :    72
 total energy-change (2. order) :-0.1952023E-02  (-0.2104622E-03)
 number of electron       8.0000000 magnetization 
 augmentation part        0.1842158 magnetization 

 Broyden mixing:
  rms(total) = 0.19724E-02    rms(broyden)= 0.19705E-02
  rms(prec ) = 0.23253E-02
  weight for this iteration     100.00

 Free energy of the ion-electron system (eV)
  ---------------------------------------------------
  alpha Z        PSCENC =         0.24030905
  Ewald energy   TEWEN  =       128.15491904
  -Hartree energ DENC   =      -284.01694095
  -exchange      EXHF   =         0.00000000
  -V(xc)+E(xc)   XCENC  =        24.69828131
  PAW double counting   =       461.26154668     -462.04565345
  entropy T*S    EENTRO =        -0.00000000
  eigenvalues    EBANDS =       -89.35188507
  atomic energy  EATOM  =       197.04175453
  Solvation  Ediel_sol  =         0.00000000
  ---------------------------------------------------
  free energy    TOTEN  =       -24.01766886 eV

  energy without entropy =      -24.01766886  energy(sigma->0) =      -24.01766886


--------------------------------------------------------------------------------------------------------




--------------------------------------- Iteration      2(   2)  ---------------------------------------


    POTLOK:  cpu time    0.1596: real time    0.1621
    SETDIJ:  cpu time    0.0017: real time    0.0017
    EDDIAG:  cpu time    0.0439: real time    0.0446
  RMM-DIIS:  cpu time    0.1831: real time    0.1860
    ORTHCH:  cpu time    0.0018: real time    0.0024
       DOS:  cpu time    0.0002: real time    0.0002
    CHARGE:  cpu time    0.0210: real time    0.0216
    MIXING:  cpu time    0.0050: real time    0.0050
    --------------------------------------------
      LOOP:  cpu time    0.4165: real time    0.4238

 eigenvalue-minimisations  :    64
 total energy-change (2. order) : 0.1201609E-05  (-0.5587579E-05)
 number of electron       8.0000000 magnetization 
 augmentation part        0.1842034 magnetization 

 Broyden mixing:
  rms(total) = 0.12320E-02    rms(broyden)= 0.12316E-02
  rms(prec ) = 0.14342E-02
  weight for this iteration     100.00

 eigenvalues of (default mixing * dielectric matrix)
  average eigenvalue GAMMA=   1.9618
  1.9618

 Free energy of the ion-electron system (eV)
  ---------------------------------------------------
  alpha Z        PSCENC =         0.24030905
  Ewald energy   TEWEN  =       128.15491904
  -Hartree energ DENC   =      -284.02975151
  -exchange      EXHF   =         0.00000000
  -V(xc)+E(xc)   XCENC  =        24.69896845
  PAW double counting   =       461.47130060     -462.25554591
  entropy T*S    EENTRO =        -0.00000000
  eigenvalues    EBANDS =       -89.33962190
  atomic energy  EATOM  =       197.04175453
  Solvation  Ediel_sol  =         0.00000000
  ---------------------------------------------------
  free energy    TOTEN  =       -24.01766766 eV

  energy without entropy =      -24.01766766  energy(sigma->0) =      -24.01766766


--------------------------------------------------------------------------------------------------------




--------------------------------------- Iteration      2(   3)  ---------------------------------------


    POTLOK:  cpu time    0.1601: real time    0.1621
    SETDIJ:  cpu time    0.0017: real time    0.0017
    EDDIAG:  cpu time    0.0442: real time    0.0448
  RMM-DIIS:  cpu time    0.1806: real time    0.1832
    ORTHCH:  cpu time    0.0016: real time    0.0016
       DOS:  cpu time    0.0005: real time    0.0005
    CHARGE:  cpu time    0.0207: real time    0.0212
    MIXING:  cpu time    0.0052: real time    0.0052
    --------------------------------------------
      LOOP:  cpu time    0.4144: real time    0.4201

 eigenvalue-minimisations  :    64
 total energy-change (2. order) : 0.6999341E-06  (-0.9401313E-06)
 number of electron       8.0000000 magnetization 
 augmentation part        0.1841897 magnetization 

 Broyden mixing:
  rms(total) = 0.26502E-03    rms(broyden)= 0.26472E-03
  rms(prec ) = 0.32883E-03
  weight for this iteration     100.00

 eigenvalues of (default mixing * dielectric matrix)
  average eigenvalue GAMMA=   1.6321
  1.0892  2.1749

 Free energy of the ion-electron system (eV)
  ---------------------------------------------------
  alpha Z        PSCENC =         0.24030905
  Ewald energy   TEWEN  =       128.15491904
  -Hartree energ DENC   =      -284.03844967
  -exchange      EXHF   =         0.00000000
  -V(xc)+E(xc)   XCENC  =        24.69943456
  PAW double counting   =       461.60556194     -462.38990955
  entropy T*S    EENTRO =        -0.00000000
  eigenvalues    EBANDS =       -89.33128686
  atomic energy  EATOM  =       197.04175453
  Solvation  Ediel_sol  =         0.00000000
  ---------------------------------------------------
  free energy    TOTEN  =       -24.01766696 eV

  energy without entropy =      -24.01766696  energy(sigma->0) =      -24.01766696


--------------------------------------------------------------------------------------------------------




--------------------------------------- Iteration      2(   4)  ---------------------------------------


    POTLOK:  cpu time    0.1599: real time    0.1618
    SETDIJ:  cpu time    0.0016: real time    0.0016
    EDDIAG:  cpu time    0.0433: real time    0.0441
  RMM-DIIS:  cpu time    0.1443: real time    0.1458
    ORTHCH:  cpu time    0.0016: real time    0.0016
       DOS:  cpu time    0.0003: real time    0.0004
    --------------------------------------------
      LOOP:  cpu time    0.3511: real time    0.3552

 eigenvalue-minimisations  :    48
 total energy-change (2. order) : 0.1266282E-06  (-0.2570083E-07)
 number of electron       8.0000000 magnetization 
 augmentation part        0.1841897 magnetization 

 Free energy of the ion-electron system (eV)
  ---------------------------------------------------
  alpha Z        PSCENC =         0.24030905
  Ewald energy   TEWEN  =       128.15491904
  -Hartree energ DENC   =      -284.03589419
  -exchange      EXHF   =         0.00000000
  -V(xc)+E(xc)   XCENC  =        24.69932314
  PAW double counting   =       461.60549027     -462.38980462
  entropy T*S    EENTRO =        -0.00000000
  eigenvalues    EBANDS =       -89.33376405
  atomic energy  EATOM  =       197.04175453
  Solvation  Ediel_sol  =         0.00000000
  ---------------------------------------------------
  free energy    TOTEN  =       -24.01766683 eV

  energy without entropy =      -24.01766683  energy(sigma->0) =      -24.01766683


--------------------------------------------------------------------------------------------------------




 average (electrostatic) potential at core
  the test charge radii are     0.5201  0.6991
  (the norm of the test charge is              1.0000)
       1 -41.5723       2 -41.3340       3 -41.4360       4 -41.5387       5 -57.9865
 
 
 
 E-fermi :  -8.2943     XC(G=0):  -0.7029     alpha+bet : -0.2090


 k-point     1 :       0.2500    0.2500    0.2500
  band No.  band energies     occupation 
      1     -16.8542      2.00000
      2      -9.3596      2.00000
      3      -9.2348      2.00000
      4      -9.2180      2.00000
      5      -0.3244      0.00000
      6       0.5584      0.00000
      7       0.6643      0.00000
      8       0.6965      0.00000

 k-point     2 :      -0.2500    0.2500    0.2500
  band No.  band energies     occupation 
      1     -16.8543      2.00000
      2      -9.3598      2.00000
      3      -9.2348      2.00000
      4      -9.2182      2.00000
      5      -0.3211      0.00000
      6       0.5465      0.00000
      7       0.6538      0.00000
      8       0.6905      0.00000

 k-point     3 :       0.2500   -0.2500    0.2500
  band No.  band energies     occupation 
      1     -16.8543      2.00000
      2      -9.3597      2.00000
      3      -9.2348      2.00000
      4      -9.2181      2.00000
      5      -0.3223      0.00000
      6       0.5493      0.00000
      7       0.6595      0.00000
      8       0.6920      0.00000

 k-point     4 :      -0.2500   -0.2500    0.2500
  band No.  band energies     occupation 
      1     -16.8543      2.00000
      2      -9.3598      2.00000
      3      -9.2348      2.00000
      4      -9.2181      2.00000
      5      -0.3227      0.00000
      6       0.5530      0.00000
      7       0.6602      0.00000
      8       0.6938      0.00000


--------------------------------------------------------------------------------------------------------


 soft charge-density along one line, spin component           1
         0         1         2         3         4         5         6         7         8         9
 total charge-density along one line
 
 pseudopotential strength for first ion, spin component:           1
 -2.342  -4.035  -0.001  -0.001   0.001
 -4.035  -6.867  -0.003  -0.004   0.002
 -0.001  -0.003  -0.337   0.002  -0.001
 -0.001  -0.004   0.002  -0.335  -0.001
  0.001   0.002  -0.001  -0.001  -0.338
 total augmentation occupancy for first ion, spin component:           1
  3.579  -0.643   0.239   0.344  -0.140
 -0.643   0.130  -0.044  -0.063   0.026
  0.239  -0.044   0.023   0.019  -0.008
  0.344  -0.063   0.019   0.037  -0.011
 -0.140   0.026  -0.008  -0.011   0.014


------------------------ aborting loop because EDIFF is reached ----------------------------------------


    CHARGE:  cpu time    0.0207: real time    0.0209
    FORLOC:  cpu time    0.0157: real time    0.0157
    FORNL :  cpu time    0.0228: real time    0.0229
    STRESS:  cpu time    0.1738: real time    0.1747
    FORCOR:  cpu time    0.1556: real time    0.1571
    FORHAR:  cpu time    0.0515: real time    0.0520
    MIXING:  cpu time    0.0061: real time    0.0065
    OFIELD:  cpu time    0.0000: real time    0.0000

  FORCE on cell =-STRESS in cart. coord.  units (eV):
  Direction    XX          YY          ZZ          XY          YZ          ZX
  --------------------------------------------------------------------------------------
  Alpha Z     0.24031     0.24031     0.24031
  Ewald      40.80788    42.96994    44.37708     0.37696     0.17519    -0.23977
  Hartree    93.34566    95.73022    94.95678     0.28572    -0.00137     0.08229
  E(xc)     -27.15733   -27.17286   -27.16432     0.00240    -0.00018    -0.00087
  Local    -193.30569  -197.68473  -197.63533    -0.67226    -0.10278     0.04868
  n-local   -15.72897   -15.82078   -15.85093     0.00354    -0.00717     0.00843
  augment     0.12164     0.11885     0.11292     0.00032    -0.00071     0.00098
  Kinetic   100.45901   101.28412   100.85175    -0.09702     0.00894     0.03834
  Fock        0.00000     0.00000     0.00000     0.00000     0.00000     0.00000
  -------------------------------------------------------------------------------------
  Total      -1.21750    -0.33493    -0.11175    -0.10034     0.07192    -0.06191
  in kB      -1.93501    -0.53232    -0.17761    -0.15948     0.11430    -0.09839
  external pressure =       -0.88 kB  Pullay stress =        0.00 kB

  kinetic pressure (ideal gas correction) =      0.00 kB
  total pressure  =     -0.88 kB
  Total+kin.    -1.933      -0.532      -0.177      -0.160       0.114      -0.098

 VOLUME and BASIS-vectors are now :
 -----------------------------------------------------------------------------
  energy-cutoff  :      400.00
[...]
 -----------------------------------------------------------------------------------------------
   -.595E+00 0.385E+00 0.311E-01   0.178E-14 0.000E+00 0.000E+00   0.595E+00 -.385E+00 -.311E-01   0.201E-03 0.231E-04 0.553E-04
 
 
 POSITION                                       TOTAL-FORCE (eV/Angst)
 -----------------------------------------------------------------------------------
      5.54728      4.02060      3.59515        -0.089628      0.111165      0.217082
      4.13227      4.76268      4.39227        -0.623309      0.074385     -0.042288
      5.69819      5.59734      4.42649         0.065001      0.161217     -0.004414
      5.45532      4.11525      5.39433        -0.032263      0.037189     -0.142706
      5.19995      4.62602      4.45217         0.680288     -0.383978     -0.027618
 -----------------------------------------------------------------------------------
    total drift:                                0.000087     -0.000021      0.000055


--------------------------------------------------------------------------------------------------------



  FREE ENERGIE OF THE ION-ELECTRON SYSTEM (eV)
  ---------------------------------------------------
  free  energy   TOTEN  =       -24.02162768 eV

  energy  without entropy=      -24.02162768  energy(sigma->0) =      -24.02162768
 
 d Force =-0.3606309E-02[-0.426E-02,-0.295E-02]  d Energy =-0.3603948E-02-0.236E-05
 d Force =-0.2301575E+00[-0.232E+00,-0.228E+00]  d Ewald  =-0.2301541E+00-0.338E-05


--------------------------------------------------------------------------------------------------------


    POTLOK:  cpu time    0.1597: real time    0.1621


--------------------------------------------------------------------------------------------------------


           RANDOM_SEED =         172208435               30                0
   IONSTEP:  cpu time    0.0001: real time    0.0001

  ENERGY OF THE ELECTRON-ION-THERMOSTAT SYSTEM (eV)
  ---------------------------------------------------
% ion-electron   TOTEN  =       -24.021628  see above
  kinetic energy EKIN   =         0.006052
  kin. lattice  EKIN_LAT=         0.000000  (temperature   11.71 K)
  nose potential ES     =         0.000000
  nose kinetic   EPS    =         0.000000
  ---------------------------------------------------
  total energy   ETOTAL =       -24.015575 eV

  maximum distance moved by ions :      0.35E-03

    WAVPRE:  cpu time    0.0529: real time    0.0742
    FEWALD:  cpu time    0.0003: real time    0.0003
    ORTHCH:  cpu time    0.0127: real time    0.0510
 Prediction of Wavefunctions ALPHA= 2.187 BETA=-1.227
     LOOP+:  cpu time    2.1502: real time    2.2517


--------------------------------------- Iteration     10(   1)  ---------------------------------------


    POTLOK:  cpu time    0.1532: real time    0.1553
    SETDIJ:  cpu time    0.0018: real time    0.0018
     EDDAV:  cpu time    0.1690: real time    0.1719
       DOS:  cpu time    0.0002: real time    0.0002
    CHARGE:  cpu time    0.0212: real time    0.0214
    MIXING:  cpu time    0.0050: real time    0.0051
    --------------------------------------------
      LOOP:  cpu time    0.3506: real time    0.3557

 eigenvalue-minimisations  :    64
 total energy-change (2. order) : 0.3225295E-02  (-0.2668878E-04)
 number of electron       8.0000002 magnetization 
 augmentation part        0.1862216 magnetization 

 Broyden mixing:
  rms(total) = 0.32659E-03    rms(broyden)= 0.32625E-03
  rms(prec ) = 0.39789E-03
  weight for this iteration     100.00

 Free energy of the ion-electron system (eV)
  ---------------------------------------------------
  alpha Z        PSCENC =         0.24030905
  Ewald energy   TEWEN  =       129.87736847
  -Hartree energ DENC   =      -285.55659437
  -exchange      EXHF   =         0.00000000
  -V(xc)+E(xc)   XCENC  =        24.77971934
  PAW double counting   =       472.04771275     -472.83818932
  entropy T*S    EENTRO =        -0.00000000
  eigenvalues    EBANDS =       -89.61048240
  atomic energy  EATOM  =       197.04175453
  Solvation  Ediel_sol  =         0.00000000
  ---------------------------------------------------
  free energy    TOTEN  =       -24.01840195 eV

  energy without entropy =      -24.01840195  energy(sigma->0) =      -24.01840195


--------------------------------------------------------------------------------------------------------




--------------------------------------- Iteration     10(   2)  ---------------------------------------


    POTLOK:  cpu time    0.1511: real time    0.1535
    SETDIJ:  cpu time    0.0016: real time    0.0017
    EDDIAG:  cpu time    0.0440: real time    0.0446
  RMM-DIIS:  cpu time    0.1789: real time    0.1819
    ORTHCH:  cpu time    0.0015: real time    0.0015
       DOS:  cpu time    0.0002: real time    0.0002
    CHARGE:  cpu time    0.0211: real time    0.0213
    MIXING:  cpu time    0.0051: real time    0.0052
    --------------------------------------------
      LOOP:  cpu time    0.4036: real time    0.4099

 eigenvalue-minimisations  :    64
 total energy-change (2. order) :-0.1151301E-05  (-0.5643795E-06)
 number of electron       8.0000002 magnetization 
 augmentation part        0.1862296 magnetization 

 Broyden mixing:
  rms(total) = 0.18958E-03    rms(broyden)= 0.18944E-03
  rms(prec ) = 0.24652E-03
  weight for this iteration     100.00

 eigenvalues of (default mixing * dielectric matrix)
  average eigenvalue GAMMA=   0.9121
  0.9121

 Free energy of the ion-electron system (eV)
  ---------------------------------------------------
  alpha Z        PSCENC =         0.24030905
  Ewald energy   TEWEN  =       129.87736847
  -Hartree energ DENC   =      -285.55223648
  -exchange      EXHF   =         0.00000000
  -V(xc)+E(xc)   XCENC  =        24.77948197
  PAW double counting   =       472.06752013     -472.85791373
  entropy T*S    EENTRO =        -0.00000000
  eigenvalues    EBANDS =       -89.61468705
  atomic energy  EATOM  =       197.04175453
  Solvation  Ediel_sol  =         0.00000000
  ---------------------------------------------------
  free energy    TOTEN  =       -24.01840311 eV

  energy without entropy =      -24.01840311  energy(sigma->0) =      -24.01840311


--------------------------------------------------------------------------------------------------------




--------------------------------------- Iteration     10(   3)  ---------------------------------------


    POTLOK:  cpu time    0.1502: real time    0.1530
    SETDIJ:  cpu time    0.0014: real time    0.0018
    EDDIAG:  cpu time    0.0438: real time    0.0439
  RMM-DIIS:  cpu time    0.1444: real time    0.1447
    ORTHCH:  cpu time    0.0017: real time    0.0017
       DOS:  cpu time    0.0002: real time    0.0002
    CHARGE:  cpu time    0.0210: real time    0.0210
    MIXING:  cpu time    0.0051: real time    0.0051
    --------------------------------------------
      LOOP:  cpu time    0.3678: real time    0.3715

 eigenvalue-minimisations  :    48
 total energy-change (2. order) :-0.7153733E-06  (-0.3156649E-07)
 number of electron       8.0000002 magnetization 
 augmentation part        0.1862328 magnetization 

 Broyden mixing:
  rms(total) = 0.93658E-04    rms(broyden)= 0.93627E-04
  rms(prec ) = 0.11711E-03
  weight for this iteration     100.00

 eigenvalues of (default mixing * dielectric matrix)
  average eigenvalue GAMMA=   1.3430
  1.3430  1.3430

 Free energy of the ion-electron system (eV)
  ---------------------------------------------------
  alpha Z        PSCENC =         0.24030905
  Ewald energy   TEWEN  =       129.87736847
  -Hartree energ DENC   =      -285.54946576
  -exchange      EXHF   =         0.00000000
  -V(xc)+E(xc)   XCENC  =        24.77936415
  PAW double counting   =       472.04041226     -472.83077328
  entropy T*S    EENTRO =        -0.00000000
  eigenvalues    EBANDS =       -89.61737324
  atomic energy  EATOM  =       197.04175453
  Solvation  Ediel_sol  =         0.00000000
  ---------------------------------------------------
  free energy    TOTEN  =       -24.01840382 eV

  energy without entropy =      -24.01840382  energy(sigma->0) =      -24.01840382


--------------------------------------------------------------------------------------------------------




--------------------------------------- Iteration     10(   4)  ---------------------------------------


    POTLOK:  cpu time    0.1533: real time    0.1543
    SETDIJ:  cpu time    0.0016: real time    0.0016
    EDDIAG:  cpu time    0.0432: real time    0.0437
  RMM-DIIS:  cpu time    0.1457: real time    0.1485
    ORTHCH:  cpu time    0.0016: real time    0.0016
       DOS:  cpu time    0.0003: real time    0.0003
    --------------------------------------------
      LOOP:  cpu time    0.3457: real time    0.3500

 eigenvalue-minimisations  :    48
 total energy-change (2. order) :-0.9460216E-06  (-0.2283887E-07)
 number of electron       8.0000002 magnetization 
 augmentation part        0.1862328 magnetization 

 Free energy of the ion-electron system (eV)
  ---------------------------------------------------
  alpha Z        PSCENC =         0.24030905
  Ewald energy   TEWEN  =       129.87736847
  -Hartree energ DENC   =      -285.54822180
  -exchange      EXHF   =         0.00000000
  -V(xc)+E(xc)   XCENC  =        24.77932212
  PAW double counting   =       472.01468940     -472.80503709
  entropy T*S    EENTRO =        -0.00000000
  eigenvalues    EBANDS =       -89.61858944
  atomic energy  EATOM  =       197.04175453
  Solvation  Ediel_sol  =         0.00000000
  ---------------------------------------------------
  free energy    TOTEN  =       -24.01840477 eV

  energy without entropy =      -24.01840477  energy(sigma->0) =      -24.01840477


--------------------------------------------------------------------------------------------------------




 average (electrostatic) potential at core
  the test charge radii are     0.5201  0.6991
  (the norm of the test charge is              1.0000)
       1 -41.4128       2 -41.6767       3 -41.5316       4 -41.4439       5 -57.9424
 
 
 
 E-fermi :  -8.3188     XC(G=0):  -0.6919     alpha+bet : -0.2090


 k-point     1 :       0.2500    0.2500    0.2500
  band No.  band energies     occupation 
      1     -16.9098      2.00000
      2      -9.3813      2.00000
      3      -9.2700      2.00000
      4      -9.2479      2.00000
      5      -0.3120      0.00000
      6       0.5654      0.00000
      7       0.6764      0.00000
      8       0.7042      0.00000

 k-point     2 :      -0.2500    0.2500    0.2500
  band No.  band energies     occupation 
      1     -16.9099      2.00000
      2      -9.3815      2.00000
      3      -9.2701      2.00000
      4      -9.2480      2.00000
      5      -0.3083      0.00000
      6       0.5502      0.00000
      7       0.6671      0.00000
      8       0.6986      0.00000

 k-point     3 :       0.2500   -0.2500    0.2500
  band No.  band energies     occupation 
      1     -16.9099      2.00000
      2      -9.3814      2.00000
      3      -9.2700      2.00000
      4      -9.2480      2.00000
      5      -0.3098      0.00000
      6       0.5554      0.00000
      7       0.6718      0.00000
      8       0.7008      0.00000

 k-point     4 :      -0.2500   -0.2500    0.2500
  band No.  band energies     occupation 
      1     -16.9099      2.00000
      2      -9.3814      2.00000
      3      -9.2700      2.00000
      4      -9.2480      2.00000
      5      -0.3103      0.00000
      6       0.5600      0.00000
      7       0.6715      0.00000
      8       0.7022      0.00000


--------------------------------------------------------------------------------------------------------


 soft charge-density along one line, spin component           1
         0         1         2         3         4         5         6         7         8         9
 total charge-density along one line
 
 pseudopotential strength for first ion, spin component:           1
 -2.340  -4.032  -0.001  -0.001   0.001
 -4.032  -6.862  -0.003  -0.004   0.002
 -0.001  -0.003  -0.338   0.002  -0.001
 -0.001  -0.004   0.002  -0.336  -0.001
  0.001   0.002  -0.001  -0.001  -0.339
 total augmentation occupancy for first ion, spin component:           1
  3.508  -0.632   0.230   0.324  -0.131
 -0.632   0.128  -0.043  -0.060   0.024
  0.230  -0.043   0.021   0.018  -0.007
  0.324  -0.060   0.018   0.034  -0.010
 -0.131   0.024  -0.007  -0.010   0.013


------------------------ aborting loop because EDIFF is reached ----------------------------------------


    CHARGE:  cpu time    0.0204: real time    0.0206
    FORLOC:  cpu time    0.0155: real time    0.0157
    FORNL :  cpu time    0.0219: real time    0.0221
    STRESS:  cpu time    0.1728: real time    0.1747
    FORCOR:  cpu time    0.1565: real time    0.1584
    FORHAR:  cpu time    0.0507: real time    0.0515
    MIXING:  cpu time    0.0056: real time    0.0057
    OFIELD:  cpu time    0.0000: real time    0.0000

  FORCE on cell =-STRESS in cart. coord.  units (eV):
  Direction    XX          YY          ZZ          XY          YZ          ZX
  --------------------------------------------------------------------------------------
  Alpha Z     0.24031     0.24031     0.24031
  Ewald      42.59743    44.21582    43.06408     0.25479    -0.08168     0.20601
  Hartree    93.23084    96.60160    95.71623     0.14531     0.03889     0.08386
  E(xc)     -27.25405   -27.25279   -27.24724    -0.00033     0.00058    -0.00081
  Local    -193.98514  -199.71440  -197.87187    -0.35422    -0.01356    -0.22935
  n-local   -16.04564   -15.97184   -15.92733    -0.00885     0.00862    -0.00924
  augment     0.10799     0.11608     0.11841    -0.00047     0.00063    -0.00069
  Kinetic   101.52553   101.46088   101.16902     0.02728    -0.03209     0.04193
  Fock        0.00000     0.00000     0.00000     0.00000     0.00000     0.00000
  -------------------------------------------------------------------------------------
  Total       0.41728    -0.30434    -0.73839     0.06350    -0.07861     0.09171
  in kB       0.66321    -0.48369    -1.17356     0.10092    -0.12493     0.14576
  external pressure =       -0.33 kB  Pullay stress =        0.00 kB

  kinetic pressure (ideal gas correction) =      0.00 kB
  total pressure  =     -0.33 kB
  Total+kin.     0.674      -0.480      -1.173       0.101      -0.124       0.146

 VOLUME and BASIS-vectors are now :
 -----------------------------------------------------------------------------
  energy-cutoff  :      400.00
  volume of cell :     1008.08
      direct lattice vectors                 reciprocal lattice vectors
    10.170357018  0.000000000  0.000000000     0.098324965 -0.001024101 -0.000802375
     0.103192196  9.907583307  0.000000000     0.000000000  0.100932787 -0.000065863
     0.081708299  0.006528316 10.004402387     0.000000000  0.000000000  0.099955995

  length of vectors
    10.170357018  9.908120690 10.004738177     0.098333572  0.100932809  0.099955995


 FORCES acting on ions
    electron-ion (+dipol)            ewald-force                    non-local-force                 convergence-correction
 -----------------------------------------------------------------------------------------------
   -.165E+02 0.288E+02 0.406E+02   0.180E+02 -.316E+02 -.446E+02   -.168E+01 0.293E+01 0.415E+01   0.394E-04 -.204E-04 -.504E-04
   0.534E+02 -.682E+01 0.301E+01   -.599E+02 0.765E+01 -.338E+01   0.579E+01 -.742E+00 0.325E+00   -.320E-04 0.154E-04 -.139E-05
   -.242E+02 -.473E+02 0.125E+01   0.269E+02 0.525E+02 -.139E+01   -.255E+01 -.497E+01 0.131E+00   0.459E-04 0.745E-04 -.118E-05
   -.122E+02 0.245E+02 -.450E+02   0.134E+02 -.269E+02 0.495E+02   -.126E+01 0.251E+01 -.463E+01   0.342E-04 -.207E-04 0.625E-04
   -.124E+01 0.129E+01 0.111E+00   0.163E+01 -.156E+01 -.130E+00   0.404E+00 -.194E+00 -.125E-01   0.385E-04 0.612E-04 -.110E-04
 -----------------------------------------------------------------------------------------------
   -.708E+00 0.459E+00 0.348E-01   0.178E-14 0.000E+00 0.000E+00   0.708E+00 -.459E+00 -.348E-01   0.126E-03 0.110E-03 -.150E-05
 
 
 POSITION                                       TOTAL-FORCE (eV/Angst)
 -----------------------------------------------------------------------------------
      5.54698      4.01893      3.59475        -0.096987      0.140726      0.244737
      4.13586      4.76251      4.39221        -0.759231      0.086800     -0.048162
      5.69659      5.59708      4.42655         0.092347      0.187878     -0.005909
      5.45522      4.11400      5.39439        -0.035542      0.054072     -0.158933
      5.19982      4.62630      4.45220         0.799563     -0.469499     -0.031728
 -----------------------------------------------------------------------------------
    total drift:                                0.000150     -0.000023      0.000005


--------------------------------------------------------------------------------------------------------



  FREE ENERGIE OF THE ION-ELECTRON SYSTEM (eV)
  ---------------------------------------------------
  free  energy   TOTEN  =       -24.01840477 eV

  energy  without entropy=      -24.01840477  energy(sigma->0) =      -24.01840477
 
 d Force =-0.3223733E-02[-0.355E-02,-0.289E-02]  d Energy =-0.3222912E-02-0.820E-06
 d Force =-0.1727458E+00[-0.173E+00,-0.172E+00]  d Ewald  =-0.1727447E+00-0.118E-05


--------------------------------------------------------------------------------------------------------


    POTLOK:  cpu time    0.1523: real time    0.1572


--------------------------------------------------------------------------------------------------------


           RANDOM_SEED =         172208435               30                0
   IONSTEP:  cpu time    0.0002: real time    0.0002

  ENERGY OF THE ELECTRON-ION-THERMOSTAT SYSTEM (eV)
  ---------------------------------------------------
% ion-electron   TOTEN  =       -24.018405  see above
  kinetic energy EKIN   =         0.002905
  kin. lattice  EKIN_LAT=         0.000000  (temperature    5.62 K)
  nose potential ES     =         0.000000
  nose kinetic   EPS    =         0.000000
  ---------------------------------------------------
  total energy   ETOTAL =       -24.015500 eV

  maximum distance moved by ions :      0.17E-03


 mean value of Nose-termostat <S>:     1.000 mean value of <T> :    14.042
 mean temperature <T/S>/<1/S>  :    14.042

    WAVPRE:  cpu time    0.0570: real time    0.0577
    FEWALD:  cpu time    0.0004: real time    0.0004
    ORTHCH:  cpu time    0.0093: real time    0.0094
 Prediction of Wavefunctions ALPHA= 2.113 BETA=-1.141
    POTLOK:  cpu time    0.1530: real time    0.1573
    EDDIAG:  cpu time    0.0448: real time    0.0454
     LOOP+:  cpu time    2.3345: real time    2.3718
    4ORBIT:  cpu time    0.0000: real time    0.0007

 total amount of memory used by VASP MPI-rank0    56600. kBytes
=======================================================================

   base      :      30000. kBytes
   nonl-proj :       2723. kBytes
   fftplans  :       8574. kBytes
   grid      :      13527. kBytes
   one-center:          6. kBytes
   wavefun   :       1770. kBytes
 
  
  
 General timing and accounting informations for this job:
 ========================================================
  
                  Total CPU time used (sec):       30.648
                            User time (sec):       28.672
                          System time (sec):        1.976
                         Elapsed time (sec):       31.783
  
                   Maximum memory used (kb):      178584.
                   Average memory used (kb):           0.
  
                          Minor page faults:       262334
                          Major page faults:          133
                 Voluntary context switches:          554
