 vasp.5.4.4.18Apr17-6-g9f103f2a35 (build Jul 09 2021 13:05:15) complex          
  
 executed on             LinuxIFC date 2021.11.04  19:03:29
 running on   16 total cores
 distrk:  each k-point on   16 cores,    1 groups
 distr:  one band on NCORES_PER_BAND=   4 cores,    4 groups


--------------------------------------------------------------------------------------------------------


 INCAR:
 POTCAR:    PAW_PBE H 15Jun2001                   
 POTCAR:    PAW_PBE C 08Apr2002                   
 POTCAR:    PAW_PBE H 15Jun2001                   
   VRHFIN =H: ultrasoft test                                                    
   LEXCH  = PE                                                                  
   EATOM  =    12.4884 eV,    0.9179 Ry                                         
                                                                                
   TITEL  = PAW_PBE H 15Jun2001                                                 
   LULTRA =        F    use ultrasoft PP ?                                      
   IUNSCR =        0    unscreen: 0-lin 1-nonlin 2-no                           
   RPACOR =    0.000    partial core radius                                     
   POMASS =    1.000; ZVAL   =    1.000    mass and valenz                      
   RCORE  =    1.100    outmost cutoff radius                                   
   RWIGS  =    0.700; RWIGS  =    0.370    wigner-seitz radius (au A)           
   ENMAX  =  250.000; ENMIN  =  200.000 eV                                      
   RCLOC  =    0.701    cutoff for local pot                                    
   LCOR   =        T    correct aug charges                                     
   LPAW   =        T    paw PP                                                  
   EAUG   =  400.000                                                            
   RMAX   =    1.123    core radius for proj-oper                               
   RAUG   =    1.200    factor for augmentation sphere                          
   RDEP   =    1.112    radius for radial grids                                 
   RDEPT  =    0.926    core radius for aug-charge                              
                                                                                
   Atomic configuration                                                         
    2 entries                                                                   
     n  l   j            E        occ.                                          
     1  0  0.50        -6.4927   1.0000                                         
     2  1  0.50        -3.4015   0.0000                                         
   Description                                                                  
     l       E           TYP  RCUT    TYP  RCUT                                 
     0     -6.4927494     23  1.100                                             
     0      6.8029130     23  1.100                                             
     1     -4.0817478     23  1.100                                             
  local pseudopotential read in
  atomic valenz-charges read in
  non local Contribution for L=           0  read in
    real space projection operators read in
  non local Contribution for L=           0  read in
    real space projection operators read in
  non local Contribution for L=           1  read in
    real space projection operators read in
    PAW grid and wavefunctions read in
 
   number of l-projection  operators is LMAX  =           3
   number of lm-projection operators is LMMAX =           5
 
 POTCAR:    PAW_PBE C 08Apr2002                   
   VRHFIN =C: s2p2                                                              
   LEXCH  = PE                                                                  
   EATOM  =   147.1560 eV,   10.8157 Ry                                         
                                                                                
   TITEL  = PAW_PBE C 08Apr2002                                                 
   LULTRA =        F    use ultrasoft PP ?                                      
   IUNSCR =        1    unscreen: 0-lin 1-nonlin 2-no                           
   RPACOR =    1.200    partial core radius                                     
   POMASS =   12.011; ZVAL   =    4.000    mass and valenz                      
   RCORE  =    1.500    outmost cutoff radius                                   
   RWIGS  =    1.630; RWIGS  =    0.863    wigner-seitz radius (au A)           
   ENMAX  =  400.000; ENMIN  =  300.000 eV                                      
   ICORE  =        2    local potential                                         
   LCOR   =        T    correct aug charges                                     
   LPAW   =        T    paw PP                                                  
   EAUG   =  644.873                                                            
   DEXC   =    0.000                                                            
   RMAX   =    1.529    core radius for proj-oper                               
   RAUG   =    1.300    factor for augmentation sphere                          
   RDEP   =    1.501    radius for radial grids                                 
   RDEPT  =    1.300    core radius for aug-charge                              
                                                                                
   Atomic configuration                                                         
    4 entries                                                                   
     n  l   j            E        occ.                                          
     1  0  0.50      -273.3789   2.0000                                         
     2  0  0.50       -13.7508   2.0000                                         
     2  1  0.50        -5.2854   2.0000                                         
     3  2  1.50        -5.4423   0.0000                                         
   Description                                                                  
     l       E           TYP  RCUT    TYP  RCUT                                 
     0    -13.7508458     23  1.200                                             
     0     -8.2022199     23  1.200                                             
     1     -5.2854383     23  1.500                                             
     1     34.0145650     23  1.500                                             
     2     -5.4423304      7  1.500                                             
  local pseudopotential read in
  partial core-charges read in
  partial kinetic energy density read in
  atomic valenz-charges read in
  non local Contribution for L=           0  read in
    real space projection operators read in
  non local Contribution for L=           0  read in
    real space projection operators read in
  non local Contribution for L=           1  read in
    real space projection operators read in
  non local Contribution for L=           1  read in
    real space projection operators read in
    PAW grid and wavefunctions read in
 
   number of l-projection  operators is LMAX  =           4
   number of lm-projection operators is LMMAX =           8
 
  PAW_PBE H 15Jun2001                   :
 energy of atom  1       EATOM=  -12.4884
 kinetic energy error for atom=    0.0098 (will be added to EATOM!!)
  PAW_PBE C 08Apr2002                   :
 energy of atom  2       EATOM= -147.1560
 kinetic energy error for atom=    0.0288 (will be added to EATOM!!)
 
 
 POSCAR:  H  C                                   
  positions in cartesian coordinates
  No initial velocities read in
 exchange correlation table for  LEXCH =        8
   RHO(1)=    0.500       N(1)  =     2000
   RHO(2)=  100.500       N(2)  =     4000
 


--------------------------------------------------------------------------------------------------------


 ion  position               nearest neighbor table
   1  0.538  0.407  0.361-   5 1.11
   2  0.395  0.480  0.438-   5 1.07
   3  0.552  0.566  0.443-   5 1.13
   4  0.528  0.416  0.540-   5 1.09
   5  0.503  0.467  0.445-   2 1.07   4 1.09   1 1.11   3 1.13
 

IMPORTANT INFORMATION: All symmetrisations will be switched off!
NOSYMM: (Re-)initialisation of all symmetry stuff for point group C_1.

 
 

Automatic generation of k-mesh.
 generate k-points for:    2    2    2
Space group operators:
 irot       det(A)        alpha          n_x          n_y          n_z        tau_x        tau_y        tau_z
    1     1.000000     0.000001     1.000000     0.000000     0.000000     0.000000     0.000000     0.000000
 
 Subroutine IBZKPT returns following result:
 ===========================================
 
 Found      4 irreducible k-points:
 
 Following reciprocal coordinates:
            Coordinates               Weight
  0.250000  0.250000  0.250000      2.000000
 -0.250000  0.250000  0.250000      2.000000
  0.250000 -0.250000  0.250000      2.000000
 -0.250000 -0.250000  0.250000      2.000000
 
 Following cartesian coordinates:
            Coordinates               Weight
  0.025520  0.023876  0.024509      2.000000
 -0.025520  0.024722  0.024462      2.000000
  0.025520 -0.024722  0.025547      2.000000
 -0.025520 -0.023876  0.025500      2.000000
 


--------------------------------------------------------------------------------------------------------




 Dimension of arrays:
   k-points           NKPTS =      4   k-points in BZ     NKDIM =      4   number of bands    NBANDS=      8
   number of dos      NEDOS =    301   number of ions     NIONS =      5
   non local maximal  LDIM  =      4   non local SUM 2l+1 LMDIM =      8
   total plane-waves  NPLWV = 313600
   max r-space proj   IRMAX =      1   max aug-charges    IRDMAX=   3871
   dimension x,y,z NGX =    64 NGY =   70 NGZ =   70
   dimension x,y,z NGXF=   128 NGYF=  140 NGZF=  140
   support grid    NGXF=   128 NGYF=  140 NGZF=  140
   ions per type =               4   1
   NGX,Y,Z   is equivalent  to a cutoff of  10.86, 11.31, 11.64 a.u.
   NGXF,Y,Z  is equivalent  to a cutoff of  21.72, 22.62, 23.27 a.u.

 SYSTEM =  unknown system                          
 POSCAR =   H  C                                   

 Startparameter for this run:
   NWRITE =      2    write-flag & timer
   PREC   = a         normal or accurate (medium, high low for compatibility)
   ISTART =      0    job   : 0-new  1-cont  2-samecut
   ICHARG =      2    charge: 1-file 2-atom 10-const
   ISPIN  =      1    spin polarized calculation?
   LNONCOLLINEAR =      F non collinear calculations
   LSORBIT =      F    spin-orbit coupling
   INIWAV =      1    electr: 0-lowe 1-rand  2-diag
   LASPH  =      F    aspherical Exc in radial PAW
   METAGGA=      F    non-selfconsistent MetaGGA calc.

 Electronic Relaxation 1
   ENCUT  =  400.0 eV  29.40 Ry    5.42 a.u.  15.98 16.78 16.31*2*pi/ulx,y,z
   ENINI  =  400.0     initial cutoff
   ENAUG  =  644.9 eV  augmentation charge cutoff
   NELM   =    120;   NELMIN=  4; NELMDL= -5     # of ELM steps 
   EDIFF  = 0.1E-05   stopping-criterion for ELM
   LREAL  =      F    real-space projection
   NLSPLINE    = F    spline interpolate recip. space projectors
   LCOMPAT=      F    compatible to vasp.4.4
   GGA_COMPAT  = T    GGA compatible to vasp.4.4-vasp.4.6
   LMAXPAW     = -100 max onsite density
   LMAXMIX     =    2 max onsite mixed and CHGCAR
   VOSKOWN=      0    Vosko Wilk Nusair interpolation
   ROPT   =    0.00000   0.00000
 Ionic relaxation
   EDIFFG = 0.1E-04   stopping-criterion for IOM
   NSW    =     10    number of steps for IOM
   NBLOCK =      1;   KBLOCK =     10    inner block; outer block 
   IBRION =      0    ionic relax: 0-MD 1-quasi-New 2-CG
   NFREE  =      0    steps in history (QN), initial steepest desc. (CG)
   ISIF   =      2    stress and relaxation
   IWAVPR =     12    prediction:  0-non 1-charg 2-wave 3-comb
   ISYM   =      0    0-nonsym 1-usesym 2-fastsym
   LCORR  =      T    Harris-Foulkes like correction to forces

   POTIM  = 0.5000    time-step for ionic-motion
   TEIN   =    0.0    initial temperature
   TEBEG  =    0.0;   TEEND  =   0.0 temperature during run
   SMASS  =  -3.00    Nose mass-parameter (am)
   estimated Nose-frequenzy (Omega)   =  0.10E-29 period in steps =****** mass=  -0.219E-26a.u.
   SCALEE = 1.0000    scale energy and forces
   NPACO  =    256;   APACO  = 16.0  distance and # of slots for P.C.
   PSTRESS=    0.0 pullay stress

  Mass of Ions in am
   POMASS =   1.00 12.01
  Ionic Valenz
   ZVAL   =   1.00  4.00
  Atomic Wigner-Seitz radii
   RWIGS  =  -1.00 -1.00
  virtual crystal weights 
   VCA    =   1.00  1.00
   NELECT =       8.0000    total number of electrons
   NUPDOWN=      -1.0000    fix difference up-down

 DOS related values:
   EMIN   =  10.00;   EMAX   =-10.00  energy-range for DOS
   EFERMI =   0.00
   ISMEAR =     0;   SIGMA  =   0.20  broadening in eV -4-tet -1-fermi 0-gaus

 Electronic relaxation 2 (details)
   IALGO  =     68    algorithm
   LDIAG  =      T    sub-space diagonalisation (order eigenvalues)
   LSUBROT=      F    optimize rotation matrix (better conditioning)
   TURBO    =      0    0=normal 1=particle mesh
   IRESTART =      0    0=no restart 2=restart with 2 vectors
   NREBOOT  =      0    no. of reboots
   NMIN     =      0    reboot dimension
   EREF     =   0.00    reference energy to select bands
   IMIX   =      4    mixing-type and parameters
     AMIX     =   0.40;   BMIX     =  1.00
     AMIX_MAG =   1.60;   BMIX_MAG =  1.00
     AMIN     =   0.10
     WC   =   100.;   INIMIX=   1;  MIXPRE=   1;  MAXMIX= -45

 Intra band minimization:
   WEIMIN = 0.0010     energy-eigenvalue tresh-hold
   EBREAK =  0.31E-07  absolut break condition
   DEPER  =   0.30     relativ break condition  

   TIME   =   0.40     timestep for ELM

  volume/ion in A,a.u.               =     201.55      1360.10
  Fermi-wavevector in a.u.,A,eV,Ry     =   0.326580  0.617147  1.451124  0.106655
  Thomas-Fermi vector in A             =   1.218565
 
 Write flags
   LWAVE        =      F    write WAVECAR
   LDOWNSAMPLE  =      F    k-point downsampling of WAVECAR
   LCHARG       =      F    write CHGCAR
   LVTOT        =      F    write LOCPOT, total local potential
   LVHAR        =      F    write LOCPOT, Hartree potential only
   LELF         =      F    write electronic localiz. function (ELF)
   LORBIT       =      0    0 simple, 1 ext, 2 COOP (PROOUT), +10 PAW based schemes


 Dipole corrections
   LMONO  =      F    monopole corrections only (constant potential shift)
   LDIPOL =      F    correct potential (dipole corrections)
   IDIPOL =      0    1-x, 2-y, 3-z, 4-all directions 
   EPSILON=  1.0000000 bulk dielectric constant

 Exchange correlation treatment:
   GGA     =    --    GGA type
   LEXCH   =     8    internal setting for exchange type
   VOSKOWN=      0    Vosko Wilk Nusair interpolation
   LHFCALC =     F    Hartree Fock is set to
   LHFONE  =     F    Hartree Fock one center treatment
   AEXX    =    0.0000 exact exchange contribution

 Linear response parameters
   LEPSILON=     F    determine dielectric tensor
   LRPA    =     F    only Hartree local field effects (RPA)
   LNABLA  =     F    use nabla operator in PAW spheres
   LVEL    =     F    velocity operator in full k-point grid
   LINTERFAST=   F  fast interpolation
   KINTER  =     0    interpolate to denser k-point grid
   CSHIFT  =0.1000    complex shift for real part using Kramers Kronig
   OMEGAMAX=  -1.0    maximum frequency
   DEG_THRESHOLD= 0.2000000E-02 threshold for treating states as degnerate
   RTIME   =   -0.100 relaxation time in fs
  (WPLASMAI=    0.000 imaginary part of plasma frequency in eV, 0.658/RTIME)
   DFIELD  = 0.0000000 0.0000000 0.0000000 field for delta impulse in time
 
 Orbital magnetization related:
   ORBITALMAG=     F  switch on orbital magnetization
   LCHIMAG   =     F  perturbation theory with respect to B field
   DQ        =  0.001000  dq finite difference perturbation B field
   LLRAUG    =     F  two centre corrections for induced B field



--------------------------------------------------------------------------------------------------------


 molecular dynamics for ions
   using a microcanonical ensemble
 charge density and potential will be updated during run
 non-spin polarized calculation
 RMM-DIIS sequential band-by-band and
  variant of blocked Davidson during initial phase
 perform sub-space diagonalisation
    before iterative eigenvector-optimisation
 modified Broyden-mixing scheme, WC =      100.0
 initial mixing is a Kerker type mixing with AMIX =  0.4000 and BMIX =      1.0000
 Hartree-type preconditioning will be used
 using additional bands            4
 reciprocal scheme for non local part
 use partial core corrections
 calculate Harris-corrections to forces 
   (improved forces if not selfconsistent)
 use gradient corrections 
 use of overlap-Matrix (Vanderbilt PP)
 Gauss-broadening in eV      SIGMA  =   0.20


--------------------------------------------------------------------------------------------------------


  energy-cutoff  :      400.00
  volume of cell :     1007.73
      direct lattice vectors                 reciprocal lattice vectors
     9.796344205  0.000000000  0.000000000     0.102078896 -0.001692254  0.000094477
     0.170564626 10.288673672  0.000000000     0.000000000  0.097194258 -0.002074946
    -0.005715156  0.213445927  9.998195981     0.000000000  0.000000000  0.100018043

  length of vectors
     9.796344205 10.290087377 10.000475724     0.102092966  0.097216404  0.100018043


 
 k-points in units of 2pi/SCALE and weight: read from INCAR                         
   0.02551972  0.02387550  0.02450939       0.250
  -0.02551972  0.02472163  0.02446216       0.250
   0.02551972 -0.02472163  0.02554687       0.250
  -0.02551972 -0.02387550  0.02549963       0.250
 
 k-points in reciprocal lattice and weights: read from INCAR                         
   0.25000000  0.25000000  0.25000000       0.250
  -0.25000000  0.25000000  0.25000000       0.250
   0.25000000 -0.25000000  0.25000000       0.250
  -0.25000000 -0.25000000  0.25000000       0.250
 
 position of ions in fractional coordinates (direct lattice) 
   0.53822832  0.40681528  0.36079522
   0.39451110  0.48041284  0.43840581
   0.55216826  0.56553763  0.44277731
   0.52826087  0.41603437  0.53956201
   0.50300325  0.46721244  0.44548425
 
 position of ions in cartesian coordinates  (Angst):
   5.33999620  4.26259993  3.60730136
   3.94420238  5.03638682  4.38326716
   5.50316053  5.91314118  4.42697434
   5.24290242  4.39560922  5.39464668
   5.00473691  4.90208313  4.45403885
 


--------------------------------------------------------------------------------------------------------


 k-point  1 :   0.2500 0.2500 0.2500  plane waves:   18279
 k-point  2 :  -0.2500 0.2500 0.2500  plane waves:   18321
 k-point  3 :   0.2500-0.2500 0.2500  plane waves:   18311
 k-point  4 :  -0.2500-0.2500 0.2500  plane waves:   18307

 maximum and minimum number of plane-waves per node :      4601     4553

 maximum number of plane-waves:     18321
 maximum index in each direction: 
   IXMAX=   16   IYMAX=   17   IZMAX=   16
   IXMIN=  -16   IYMIN=  -17   IZMIN=  -16


 parallel 3D FFT for wavefunctions:
    minimum data exchange during FFTs selected (reduces bandwidth)
 parallel 3D FFT for charge:
    minimum data exchange during FFTs selected (reduces bandwidth)


 total amount of memory used by VASP MPI-rank0    52999. kBytes
=======================================================================

   base      :      30000. kBytes
   nonl-proj :       2725. kBytes
   fftplans  :       7645. kBytes
   grid      :      12032. kBytes
   one-center:          6. kBytes
   wavefun   :        591. kBytes
 
     INWAV:  cpu time    0.0000: real time    0.0000
 Broyden mixing: mesh for mixing (old mesh)
   NGX = 31   NGY = 33   NGZ = 33
  (NGX  =128   NGY  =140   NGZ  =140)
  gives a total of  33759 points

 initial charge density was supplied:
 charge density of overlapping atoms calculated
 number of electron       8.0000000 magnetization 
 keeping initial charge density in first step


--------------------------------------------------------------------------------------------------------


 Maximum index for augmentation-charges          292 (set IRDMAX)


--------------------------------------------------------------------------------------------------------


 First call to EWALD:  gamma=   0.177
 Maximum number of real-space cells 3x 3x 3
 Maximum number of reciprocal cells 3x 3x 3

    FEWALD:  cpu time    0.0014: real time    0.0014


--------------------------------------- Iteration      1(   1)  ---------------------------------------


    POTLOK:  cpu time    0.1268: real time    0.1268
    SETDIJ:  cpu time    0.0016: real time    0.0016
     EDDAV:  cpu time    0.1850: real time    0.1850
       DOS:  cpu time    0.0007: real time    0.0007
    --------------------------------------------
      LOOP:  cpu time    0.3142: real time    0.3142

 eigenvalue-minimisations  :    96
 total energy-change (2. order) : 0.1107506E+02  (-0.1893524E+03)
 number of electron       8.0000000 magnetization 
 augmentation part        8.0000000 magnetization 

 Free energy of the ion-electron system (eV)
  ---------------------------------------------------
  alpha Z        PSCENC =         0.24039207
  Ewald energy   TEWEN  =       128.10313673
  -Hartree energ DENC   =      -243.81391038
  -exchange      EXHF   =         0.00000000
  -V(xc)+E(xc)   XCENC  =        21.98475521
  PAW double counting   =       117.05815612     -117.66307307
  entropy T*S    EENTRO =        -0.00000000
  eigenvalues    EBANDS =       -91.87614802
  atomic energy  EATOM  =       197.04175453
  Solvation  Ediel_sol  =         0.00000000
  ---------------------------------------------------
  free energy    TOTEN  =        11.07506319 eV

  energy without entropy =       11.07506319  energy(sigma->0) =       11.07506319


--------------------------------------------------------------------------------------------------------




--------------------------------------- Iteration      1(   2)  ---------------------------------------


     EDDAV:  cpu time    0.1384: real time    0.1384
       DOS:  cpu time    0.0002: real time    0.0002
    --------------------------------------------
      LOOP:  cpu time    0.1385: real time    0.1385

 eigenvalue-minimisations  :    64
 total energy-change (2. order) :-0.3455012E+02  (-0.3455012E+02)
 number of electron       8.0000000 magnetization 
 augmentation part        8.0000000 magnetization 

 Free energy of the ion-electron system (eV)
  ---------------------------------------------------
  alpha Z        PSCENC =         0.24039207
  Ewald energy   TEWEN  =       128.10313673
  -Hartree energ DENC   =      -243.81391038
  -exchange      EXHF   =         0.00000000
  -V(xc)+E(xc)   XCENC  =        21.98475521
  PAW double counting   =       117.05815612     -117.66307307
  entropy T*S    EENTRO =        -0.00000000
  eigenvalues    EBANDS =      -126.42626775
  atomic energy  EATOM  =       197.04175453
  Solvation  Ediel_sol  =         0.00000000
  ---------------------------------------------------
  free energy    TOTEN  =       -23.47505654 eV

  energy without entropy =      -23.47505654  energy(sigma->0) =      -23.47505654


--------------------------------------------------------------------------------------------------------




--------------------------------------- Iteration      1(   3)  ---------------------------------------


     EDDAV:  cpu time    0.1383: real time    0.1383
       DOS:  cpu time    0.0002: real time    0.0002
    --------------------------------------------
      LOOP:  cpu time    0.1385: real time    0.1385

 eigenvalue-minimisations  :    64
 total energy-change (2. order) :-0.3838033E+01  (-0.3838033E+01)
 number of electron       8.0000000 magnetization 
 augmentation part        8.0000000 magnetization 

 Free energy of the ion-electron system (eV)
  ---------------------------------------------------
  alpha Z        PSCENC =         0.24039207
  Ewald energy   TEWEN  =       128.10313673
  -Hartree energ DENC   =      -243.81391038
  -exchange      EXHF   =         0.00000000
  -V(xc)+E(xc)   XCENC  =        21.98475521
  PAW double counting   =       117.05815612     -117.66307307
  entropy T*S    EENTRO =        -0.00000000
  eigenvalues    EBANDS =      -130.26430073
  atomic energy  EATOM  =       197.04175453
  Solvation  Ediel_sol  =         0.00000000
  ---------------------------------------------------
  free energy    TOTEN  =       -27.31308952 eV

  energy without entropy =      -27.31308952  energy(sigma->0) =      -27.31308952


--------------------------------------------------------------------------------------------------------




--------------------------------------- Iteration      1(   4)  ---------------------------------------


     EDDAV:  cpu time    0.2303: real time    0.2303
       DOS:  cpu time    0.0002: real time    0.0002
    --------------------------------------------
      LOOP:  cpu time    0.2305: real time    0.2305

 eigenvalue-minimisations  :   128
 total energy-change (2. order) :-0.1573914E+00  (-0.1573914E+00)
 number of electron       8.0000000 magnetization 
 augmentation part        8.0000000 magnetization 

 Free energy of the ion-electron system (eV)
  ---------------------------------------------------
  alpha Z        PSCENC =         0.24039207
  Ewald energy   TEWEN  =       128.10313673
  -Hartree energ DENC   =      -243.81391038
  -exchange      EXHF   =         0.00000000
  -V(xc)+E(xc)   XCENC  =        21.98475521
  PAW double counting   =       117.05815612     -117.66307307
  entropy T*S    EENTRO =        -0.00000000
  eigenvalues    EBANDS =      -130.42169210
  atomic energy  EATOM  =       197.04175453
  Solvation  Ediel_sol  =         0.00000000
  ---------------------------------------------------
  free energy    TOTEN  =       -27.47048089 eV

  energy without entropy =      -27.47048089  energy(sigma->0) =      -27.47048089


--------------------------------------------------------------------------------------------------------




--------------------------------------- Iteration      1(   5)  ---------------------------------------


     EDDAV:  cpu time    0.1834: real time    0.1835
       DOS:  cpu time    0.0002: real time    0.0002
    CHARGE:  cpu time    0.0186: real time    0.0186
    MIXING:  cpu time    0.0037: real time    0.0037
    --------------------------------------------
      LOOP:  cpu time    0.2059: real time    0.2060

 eigenvalue-minimisations  :    96
 total energy-change (2. order) :-0.5280344E-04  (-0.5280376E-04)
 number of electron       8.0000000 magnetization 
 augmentation part        0.2237860 magnetization 

 Broyden mixing:
  rms(total) = 0.86500E+00    rms(broyden)= 0.86474E+00
  rms(prec ) = 0.12171E+01
  weight for this iteration     100.00

 Free energy of the ion-electron system (eV)
  ---------------------------------------------------
  alpha Z        PSCENC =         0.24039207
  Ewald energy   TEWEN  =       128.10313673
  -Hartree energ DENC   =      -243.81391038
  -exchange      EXHF   =         0.00000000
  -V(xc)+E(xc)   XCENC  =        21.98475521
  PAW double counting   =       117.05815612     -117.66307307
  entropy T*S    EENTRO =        -0.00000000
  eigenvalues    EBANDS =      -130.42174491
  atomic energy  EATOM  =       197.04175453
  Solvation  Ediel_sol  =         0.00000000
  ---------------------------------------------------
  free energy    TOTEN  =       -27.47053370 eV

  energy without entropy =      -27.47053370  energy(sigma->0) =      -27.47053370


--------------------------------------------------------------------------------------------------------




--------------------------------------- Iteration      1(   6)  ---------------------------------------


    POTLOK:  cpu time    0.1232: real time    0.1232
    SETDIJ:  cpu time    0.0014: real time    0.0014
    EDDIAG:  cpu time    0.0345: real time    0.0346
  RMM-DIIS:  cpu time    0.1383: real time    0.1383
    ORTHCH:  cpu time    0.0014: real time    0.0014
       DOS:  cpu time    0.0002: real time    0.0002
    CHARGE:  cpu time    0.0170: real time    0.0170
    MIXING:  cpu time    0.0039: real time    0.0039
    --------------------------------------------
      LOOP:  cpu time    0.3200: real time    0.3200

 eigenvalue-minimisations  :    64
 total energy-change (2. order) : 0.2848591E+01  (-0.5257786E+00)
 number of electron       8.0000000 magnetization 
 augmentation part        0.1972296 magnetization 

 Broyden mixing:
  rms(total) = 0.42657E+00    rms(broyden)= 0.42647E+00
  rms(prec ) = 0.54990E+00
  weight for this iteration     100.00

 eigenvalues of (default mixing * dielectric matrix)
  average eigenvalue GAMMA=   1.3011
  1.3011

 Free energy of the ion-electron system (eV)
  ---------------------------------------------------
  alpha Z        PSCENC =         0.24039207
  Ewald energy   TEWEN  =       128.10313673
  -Hartree energ DENC   =      -263.38160817
  -exchange      EXHF   =         0.00000000
  -V(xc)+E(xc)   XCENC  =        23.17313927
  PAW double counting   =       237.08027250     -237.85786028
  entropy T*S    EENTRO =        -0.00000000
  eigenvalues    EBANDS =      -109.02116950
  atomic energy  EATOM  =       197.04175453
  Solvation  Ediel_sol  =         0.00000000
  ---------------------------------------------------
  free energy    TOTEN  =       -24.62194285 eV

  energy without entropy =      -24.62194285  energy(sigma->0) =      -24.62194285


--------------------------------------------------------------------------------------------------------




--------------------------------------- Iteration      1(   7)  ---------------------------------------


    POTLOK:  cpu time    0.1237: real time    0.1237
    SETDIJ:  cpu time    0.0014: real time    0.0014
    EDDIAG:  cpu time    0.0322: real time    0.0322
  RMM-DIIS:  cpu time    0.1355: real time    0.1355
    ORTHCH:  cpu time    0.0014: real time    0.0014
       DOS:  cpu time    0.0002: real time    0.0002
    CHARGE:  cpu time    0.0161: real time    0.0161
    MIXING:  cpu time    0.0040: real time    0.0040
    --------------------------------------------
      LOOP:  cpu time    0.3144: real time    0.3145

 eigenvalue-minimisations  :    64
 total energy-change (2. order) : 0.4822446E+00  (-0.1166653E+00)
 number of electron       8.0000000 magnetization 
 augmentation part        0.1869186 magnetization 

 Broyden mixing:
  rms(total) = 0.22724E+00    rms(broyden)= 0.22717E+00
  rms(prec ) = 0.27368E+00
  weight for this iteration     100.00

 eigenvalues of (default mixing * dielectric matrix)
  average eigenvalue GAMMA=   1.8403
  1.4501  2.2304

 Free energy of the ion-electron system (eV)
  ---------------------------------------------------
  alpha Z        PSCENC =         0.24039207
  Ewald energy   TEWEN  =       128.10313673
  -Hartree energ DENC   =      -274.86440048
  -exchange      EXHF   =         0.00000000
  -V(xc)+E(xc)   XCENC  =        24.01815465
  PAW double counting   =       361.26471929     -362.08022084
  entropy T*S    EENTRO =        -0.00000000
  eigenvalues    EBANDS =       -97.86323422
  atomic energy  EATOM  =       197.04175453
  Solvation  Ediel_sol  =         0.00000000
  ---------------------------------------------------
  free energy    TOTEN  =       -24.13969826 eV

  energy without entropy =      -24.13969826  energy(sigma->0) =      -24.13969826


--------------------------------------------------------------------------------------------------------




--------------------------------------- Iteration      1(   8)  ---------------------------------------


    POTLOK:  cpu time    0.1233: real time    0.1233
    SETDIJ:  cpu time    0.0014: real time    0.0014
    EDDIAG:  cpu time    0.0318: real time    0.0318
  RMM-DIIS:  cpu time    0.1379: real time    0.1379
    ORTHCH:  cpu time    0.0015: real time    0.0015
       DOS:  cpu time    0.0002: real time    0.0002
    CHARGE:  cpu time    0.0161: real time    0.0161
    MIXING:  cpu time    0.0041: real time    0.0041
    --------------------------------------------
      LOOP:  cpu time    0.3162: real time    0.3163

 eigenvalue-minimisations  :    64
 total energy-change (2. order) : 0.1455208E+00  (-0.1632046E-01)
 number of electron       8.0000000 magnetization 
 augmentation part        0.1855322 magnetization 

 Broyden mixing:
  rms(total) = 0.22722E-01    rms(broyden)= 0.22694E-01
  rms(prec ) = 0.51951E-01
  weight for this iteration     100.00

 eigenvalues of (default mixing * dielectric matrix)
  average eigenvalue GAMMA=   1.5457
  2.2473  0.9891  1.4008

 Free energy of the ion-electron system (eV)
  ---------------------------------------------------
  alpha Z        PSCENC =         0.24039207
  Ewald energy   TEWEN  =       128.10313673
  -Hartree energ DENC   =      -280.27479084
  -exchange      EXHF   =         0.00000000
  -V(xc)+E(xc)   XCENC  =        24.55448763
  PAW double counting   =       468.85463635     -469.63854480
  entropy T*S    EENTRO =        -0.00000000
  eigenvalues    EBANDS =       -92.87524916
  atomic energy  EATOM  =       197.04175453
  Solvation  Ediel_sol  =         0.00000000
  ---------------------------------------------------
  free energy    TOTEN  =       -23.99417750 eV

  energy without entropy =      -23.99417750  energy(sigma->0) =      -23.99417750


--------------------------------------------------------------------------------------------------------




--------------------------------------- Iteration      1(   9)  ---------------------------------------


    POTLOK:  cpu time    0.1234: real time    0.1234
    SETDIJ:  cpu time    0.0014: real time    0.0014
    EDDIAG:  cpu time    0.0318: real time    0.0318
  RMM-DIIS:  cpu time    0.1383: real time    0.1383
    ORTHCH:  cpu time    0.0014: real time    0.0014
       DOS:  cpu time    0.0002: real time    0.0002
    CHARGE:  cpu time    0.0160: real time    0.0160
    MIXING:  cpu time    0.0042: real time    0.0042
    --------------------------------------------
      LOOP:  cpu time    0.3167: real time    0.3167

 eigenvalue-minimisations  :    64
 total energy-change (2. order) : 0.5568378E-02  (-0.1092016E-02)
 number of electron       8.0000000 magnetization 
 augmentation part        0.1849701 magnetization 

 Broyden mixing:
  rms(total) = 0.19417E-01    rms(broyden)= 0.19413E-01
  rms(prec ) = 0.39814E-01
  weight for this iteration     100.00

 eigenvalues of (default mixing * dielectric matrix)
  average eigenvalue GAMMA=   2.0862
  1.0039  1.3682  2.9863  2.9863

 Free energy of the ion-electron system (eV)
  ---------------------------------------------------
  alpha Z        PSCENC =         0.24039207
  Ewald energy   TEWEN  =       128.10313673
  -Hartree energ DENC   =      -281.51668794
  -exchange      EXHF   =         0.00000000
  -V(xc)+E(xc)   XCENC  =        24.62259835
  PAW double counting   =       471.89098548     -472.67757364
  entropy T*S    EENTRO =        -0.00000000
  eigenvalues    EBANDS =       -91.69321469
  atomic energy  EATOM  =       197.04175453
  Solvation  Ediel_sol  =         0.00000000
  ---------------------------------------------------
  free energy    TOTEN  =       -23.98860912 eV

  energy without entropy =      -23.98860912  energy(sigma->0) =      -23.98860912


--------------------------------------------------------------------------------------------------------




--------------------------------------- Iteration      1(  10)  ---------------------------------------


    POTLOK:  cpu time    0.1192: real time    0.1192
    SETDIJ:  cpu time    0.0014: real time    0.0014
    EDDIAG:  cpu time    0.0317: real time    0.0317
  RMM-DIIS:  cpu time    0.1375: real time    0.1375
    ORTHCH:  cpu time    0.0015: real time    0.0015
       DOS:  cpu time    0.0002: real time    0.0002
    CHARGE:  cpu time    0.0159: real time    0.0159
    MIXING:  cpu time    0.0043: real time    0.0043
    --------------------------------------------
      LOOP:  cpu time    0.3117: real time    0.3118

 eigenvalue-minimisations  :    64
 total energy-change (2. order) : 0.6190265E-02  (-0.2398908E-02)
 number of electron       8.0000000 magnetization 
 augmentation part        0.1839418 magnetization 

 Broyden mixing:
  rms(total) = 0.27286E-01    rms(broyden)= 0.27284E-01
  rms(prec ) = 0.34718E-01
  weight for this iteration     100.00

 eigenvalues of (default mixing * dielectric matrix)
  average eigenvalue GAMMA=   1.7843
  3.0533  2.4082  0.9822  1.2390  1.2390

 Free energy of the ion-electron system (eV)
  ---------------------------------------------------
  alpha Z        PSCENC =         0.24039207
  Ewald energy   TEWEN  =       128.10313673
  -Hartree energ DENC   =      -283.69277559
  -exchange      EXHF   =         0.00000000
  -V(xc)+E(xc)   XCENC  =        24.69251904
  PAW double counting   =       456.34464998     -457.13461149
  entropy T*S    EENTRO =        -0.00000000
  eigenvalues    EBANDS =       -89.57748413
  atomic energy  EATOM  =       197.04175453
  Solvation  Ediel_sol  =         0.00000000
  ---------------------------------------------------
  free energy    TOTEN  =       -23.98241886 eV

  energy without entropy =      -23.98241886  energy(sigma->0) =      -23.98241886


--------------------------------------------------------------------------------------------------------




--------------------------------------- Iteration      1(  11)  ---------------------------------------


    POTLOK:  cpu time    0.1191: real time    0.1191
    SETDIJ:  cpu time    0.0014: real time    0.0014
    EDDIAG:  cpu time    0.0317: real time    0.0317
  RMM-DIIS:  cpu time    0.1368: real time    0.1368
    ORTHCH:  cpu time    0.0015: real time    0.0015
       DOS:  cpu time    0.0002: real time    0.0002
    CHARGE:  cpu time    0.0159: real time    0.0159
    MIXING:  cpu time    0.0044: real time    0.0044
    --------------------------------------------
      LOOP:  cpu time    0.3110: real time    0.3110

 eigenvalue-minimisations  :    64
 total energy-change (2. order) :-0.7908278E-03  (-0.8168178E-03)
 number of electron       8.0000000 magnetization 
 augmentation part        0.1843047 magnetization 

 Broyden mixing:
  rms(total) = 0.87154E-02    rms(broyden)= 0.87119E-02
  rms(prec ) = 0.14356E-01
  weight for this iteration     100.00

 eigenvalues of (default mixing * dielectric matrix)
  average eigenvalue GAMMA=   2.2392
  4.6496  3.0586  2.4234  1.2773  1.0131  1.0131

 Free energy of the ion-electron system (eV)
  ---------------------------------------------------
  alpha Z        PSCENC =         0.24039207
  Ewald energy   TEWEN  =       128.10313673
  -Hartree energ DENC   =      -283.59507789
  -exchange      EXHF   =         0.00000000
  -V(xc)+E(xc)   XCENC  =        24.70722745
  PAW double counting   =       465.45827313     -466.24075061
  entropy T*S    EENTRO =        -0.00000000
  eigenvalues    EBANDS =       -89.69816509
  atomic energy  EATOM  =       197.04175453
  Solvation  Ediel_sol  =         0.00000000
  ---------------------------------------------------
  free energy    TOTEN  =       -23.98320968 eV

  energy without entropy =      -23.98320968  energy(sigma->0) =      -23.98320968


--------------------------------------------------------------------------------------------------------




--------------------------------------- Iteration      1(  12)  ---------------------------------------


    POTLOK:  cpu time    0.1131: real time    0.1131
    SETDIJ:  cpu time    0.0014: real time    0.0014
    EDDIAG:  cpu time    0.0316: real time    0.0316
  RMM-DIIS:  cpu time    0.1387: real time    0.1387
    ORTHCH:  cpu time    0.0016: real time    0.0016
       DOS:  cpu time    0.0002: real time    0.0002
    CHARGE:  cpu time    0.0162: real time    0.0162
    MIXING:  cpu time    0.0046: real time    0.0046
    --------------------------------------------
      LOOP:  cpu time    0.3072: real time    0.3073

 eigenvalue-minimisations  :    64
 total energy-change (2. order) :-0.9196155E-02  (-0.2979825E-03)
 number of electron       8.0000000 magnetization 
 augmentation part        0.1844910 magnetization 

 Broyden mixing:
  rms(total) = 0.11492E-01    rms(broyden)= 0.11491E-01
  rms(prec ) = 0.15064E-01
  weight for this iteration     100.00

 eigenvalues of (default mixing * dielectric matrix)
  average eigenvalue GAMMA=   2.0042
  4.6840  2.8819  2.4186  1.1993  1.0018  1.0018  0.8419

 Free energy of the ion-electron system (eV)
  ---------------------------------------------------
  alpha Z        PSCENC =         0.24039207
  Ewald energy   TEWEN  =       128.10313673
  -Hartree energ DENC   =      -283.81555203
  -exchange      EXHF   =         0.00000000
  -V(xc)+E(xc)   XCENC  =        24.69955633
  PAW double counting   =       462.15875856     -462.94044951
  entropy T*S    EENTRO =        -0.00000000
  eigenvalues    EBANDS =       -89.48000251
  atomic energy  EATOM  =       197.04175453
  Solvation  Ediel_sol  =         0.00000000
  ---------------------------------------------------
  free energy    TOTEN  =       -23.99240584 eV

  energy without entropy =      -23.99240584  energy(sigma->0) =      -23.99240584


--------------------------------------------------------------------------------------------------------




--------------------------------------- Iteration      1(  13)  ---------------------------------------


    POTLOK:  cpu time    0.1129: real time    0.1129
    SETDIJ:  cpu time    0.0014: real time    0.0014
    EDDIAG:  cpu time    0.0315: real time    0.0315
  RMM-DIIS:  cpu time    0.1387: real time    0.1387
    ORTHCH:  cpu time    0.0014: real time    0.0014
       DOS:  cpu time    0.0002: real time    0.0002
    CHARGE:  cpu time    0.0161: real time    0.0161
    MIXING:  cpu time    0.0048: real time    0.0048
    --------------------------------------------
      LOOP:  cpu time    0.3070: real time    0.3071

 eigenvalue-minimisations  :    64
 total energy-change (2. order) :-0.6672404E-03  (-0.1035848E-03)
 number of electron       8.0000000 magnetization 
 augmentation part        0.1842436 magnetization 

 Broyden mixing:
  rms(total) = 0.40079E-02    rms(broyden)= 0.40075E-02
  rms(prec ) = 0.57370E-02
  weight for this iteration     100.00

 eigenvalues of (default mixing * dielectric matrix)
  average eigenvalue GAMMA=   2.3558
  5.9283  3.8833  2.4511  2.2304  1.2335  1.2335  0.9838  0.9024

 Free energy of the ion-electron system (eV)
  ---------------------------------------------------
  alpha Z        PSCENC =         0.24039207
  Ewald energy   TEWEN  =       128.10313673
  -Hartree energ DENC   =      -283.99975416
  -exchange      EXHF   =         0.00000000
  -V(xc)+E(xc)   XCENC  =        24.70460747
  PAW double counting   =       461.97464505     -462.75869410
  entropy T*S    EENTRO =        -0.00000000
  eigenvalues    EBANDS =       -89.29916066
  atomic energy  EATOM  =       197.04175453
  Solvation  Ediel_sol  =         0.00000000
  ---------------------------------------------------
  free energy    TOTEN  =       -23.99307308 eV

  energy without entropy =      -23.99307308  energy(sigma->0) =      -23.99307308


--------------------------------------------------------------------------------------------------------




--------------------------------------- Iteration      1(  14)  ---------------------------------------


    POTLOK:  cpu time    0.1116: real time    0.1116
    SETDIJ:  cpu time    0.0014: real time    0.0014
    EDDIAG:  cpu time    0.0315: real time    0.0315
  RMM-DIIS:  cpu time    0.1385: real time    0.1385
    ORTHCH:  cpu time    0.0014: real time    0.0014
       DOS:  cpu time    0.0002: real time    0.0002
    CHARGE:  cpu time    0.0161: real time    0.0161
    MIXING:  cpu time    0.0049: real time    0.0049
    --------------------------------------------
      LOOP:  cpu time    0.3056: real time    0.3056

 eigenvalue-minimisations  :    64
 total energy-change (2. order) :-0.2791767E-02  (-0.9492404E-04)
 number of electron       8.0000000 magnetization 
 augmentation part        0.1841581 magnetization 

 Broyden mixing:
  rms(total) = 0.18121E-02    rms(broyden)= 0.18103E-02
  rms(prec ) = 0.25401E-02
  weight for this iteration     100.00

 eigenvalues of (default mixing * dielectric matrix)
  average eigenvalue GAMMA=   2.3370
  6.3947  3.8786  2.6151  2.3355  1.4240  1.2385  1.2385  0.9900  0.9180

 Free energy of the ion-electron system (eV)
  ---------------------------------------------------
  alpha Z        PSCENC =         0.24039207
  Ewald energy   TEWEN  =       128.10313673
  -Hartree energ DENC   =      -283.98192649
  -exchange      EXHF   =         0.00000000
  -V(xc)+E(xc)   XCENC  =        24.69465603
  PAW double counting   =       461.46142422     -462.24636995
  entropy T*S    EENTRO =        -0.00000000
  eigenvalues    EBANDS =       -89.30893198
  atomic energy  EATOM  =       197.04175453
  Solvation  Ediel_sol  =         0.00000000
  ---------------------------------------------------
  free energy    TOTEN  =       -23.99586485 eV

  energy without entropy =      -23.99586485  energy(sigma->0) =      -23.99586485


--------------------------------------------------------------------------------------------------------




--------------------------------------- Iteration      1(  15)  ---------------------------------------


    POTLOK:  cpu time    0.1114: real time    0.1114
    SETDIJ:  cpu time    0.0015: real time    0.0015
    EDDIAG:  cpu time    0.0314: real time    0.0315
  RMM-DIIS:  cpu time    0.1394: real time    0.1395
    ORTHCH:  cpu time    0.0014: real time    0.0014
       DOS:  cpu time    0.0002: real time    0.0002
    CHARGE:  cpu time    0.0161: real time    0.0161
    MIXING:  cpu time    0.0050: real time    0.0050
    --------------------------------------------
      LOOP:  cpu time    0.3065: real time    0.3065

 eigenvalue-minimisations  :    64
 total energy-change (2. order) :-0.3401536E-03  (-0.4944858E-05)
 number of electron       8.0000000 magnetization 
 augmentation part        0.1841108 magnetization 

 Broyden mixing:
  rms(total) = 0.14682E-02    rms(broyden)= 0.14679E-02
  rms(prec ) = 0.19692E-02
  weight for this iteration     100.00

 eigenvalues of (default mixing * dielectric matrix)
  average eigenvalue GAMMA=   2.5087
  7.4828  4.7775  2.6685  2.6685  2.0757  1.2585  1.2585  0.9984  0.9984  0.9004

 Free energy of the ion-electron system (eV)
  ---------------------------------------------------
  alpha Z        PSCENC =         0.24039207
  Ewald energy   TEWEN  =       128.10313673
  -Hartree energ DENC   =      -283.99399541
  -exchange      EXHF   =         0.00000000
  -V(xc)+E(xc)   XCENC  =        24.69540282
  PAW double counting   =       461.49421601     -462.27883784
  entropy T*S    EENTRO =        -0.00000000
  eigenvalues    EBANDS =       -89.29827392
  atomic energy  EATOM  =       197.04175453
  Solvation  Ediel_sol  =         0.00000000
  ---------------------------------------------------
  free energy    TOTEN  =       -23.99620500 eV

  energy without entropy =      -23.99620500  energy(sigma->0) =      -23.99620500


--------------------------------------------------------------------------------------------------------




--------------------------------------- Iteration      1(  16)  ---------------------------------------


    POTLOK:  cpu time    0.1128: real time    0.1128
    SETDIJ:  cpu time    0.0014: real time    0.0014
    EDDIAG:  cpu time    0.0314: real time    0.0314
  RMM-DIIS:  cpu time    0.1358: real time    0.1358
    ORTHCH:  cpu time    0.0013: real time    0.0013
       DOS:  cpu time    0.0002: real time    0.0002
    CHARGE:  cpu time    0.0161: real time    0.0161
    MIXING:  cpu time    0.0053: real time    0.0053
    --------------------------------------------
      LOOP:  cpu time    0.3043: real time    0.3043

 eigenvalue-minimisations  :    64
 total energy-change (2. order) :-0.1970747E-03  (-0.5034610E-05)
 number of electron       8.0000000 magnetization 
 augmentation part        0.1841394 magnetization 

 Broyden mixing:
  rms(total) = 0.17966E-03    rms(broyden)= 0.17931E-03
  rms(prec ) = 0.33421E-03
  weight for this iteration     100.00

 eigenvalues of (default mixing * dielectric matrix)
  average eigenvalue GAMMA=   2.5413
  7.7979  4.8824  3.3937  2.4167  2.0644  2.0644  1.2297  1.2297  1.0125  0.9317
  0.9317

 Free energy of the ion-electron system (eV)
  ---------------------------------------------------
  alpha Z        PSCENC =         0.24039207
  Ewald energy   TEWEN  =       128.10313673
  -Hartree energ DENC   =      -283.95783251
  -exchange      EXHF   =         0.00000000
  -V(xc)+E(xc)   XCENC  =        24.69394076
  PAW double counting   =       461.45775219     -462.24199131
  entropy T*S    EENTRO =        -0.00000000
  eigenvalues    EBANDS =       -89.33355454
  atomic energy  EATOM  =       197.04175453
  Solvation  Ediel_sol  =         0.00000000
  ---------------------------------------------------
  free energy    TOTEN  =       -23.99640207 eV

  energy without entropy =      -23.99640207  energy(sigma->0) =      -23.99640207


--------------------------------------------------------------------------------------------------------




--------------------------------------- Iteration      1(  17)  ---------------------------------------


    POTLOK:  cpu time    0.1143: real time    0.1143
    SETDIJ:  cpu time    0.0014: real time    0.0014
    EDDIAG:  cpu time    0.0314: real time    0.0314
  RMM-DIIS:  cpu time    0.1382: real time    0.1382
    ORTHCH:  cpu time    0.0013: real time    0.0013
       DOS:  cpu time    0.0002: real time    0.0002
    CHARGE:  cpu time    0.0158: real time    0.0159
    MIXING:  cpu time    0.0053: real time    0.0053
    --------------------------------------------
      LOOP:  cpu time    0.3079: real time    0.3079

 eigenvalue-minimisations  :    64
 total energy-change (2. order) :-0.5142092E-04  (-0.7847496E-06)
 number of electron       8.0000000 magnetization 
 augmentation part        0.1841261 magnetization 

 Broyden mixing:
  rms(total) = 0.41152E-03    rms(broyden)= 0.41152E-03
  rms(prec ) = 0.56514E-03
  weight for this iteration     100.00

 eigenvalues of (default mixing * dielectric matrix)
  average eigenvalue GAMMA=   2.5864
  8.4266  5.2995  3.8546  2.5302  2.5302  1.9304  1.2720  1.2720  1.0770  0.9875
  0.9282  0.9282

 Free energy of the ion-electron system (eV)
  ---------------------------------------------------
  alpha Z        PSCENC =         0.24039207
  Ewald energy   TEWEN  =       128.10313673
  -Hartree energ DENC   =      -283.98739168
  -exchange      EXHF   =         0.00000000
  -V(xc)+E(xc)   XCENC  =        24.69539461
  PAW double counting   =       461.46483285     -462.24921841
  entropy T*S    EENTRO =        -0.00000000
  eigenvalues    EBANDS =       -89.30535419
  atomic energy  EATOM  =       197.04175453
  Solvation  Ediel_sol  =         0.00000000
  ---------------------------------------------------
  free energy    TOTEN  =       -23.99645350 eV

  energy without entropy =      -23.99645350  energy(sigma->0) =      -23.99645350


--------------------------------------------------------------------------------------------------------




--------------------------------------- Iteration      1(  18)  ---------------------------------------


    POTLOK:  cpu time    0.1156: real time    0.1156
    SETDIJ:  cpu time    0.0014: real time    0.0014
    EDDIAG:  cpu time    0.0315: real time    0.0315
  RMM-DIIS:  cpu time    0.1367: real time    0.1367
    ORTHCH:  cpu time    0.0014: real time    0.0014
       DOS:  cpu time    0.0002: real time    0.0002
    CHARGE:  cpu time    0.0158: real time    0.0158
    MIXING:  cpu time    0.0053: real time    0.0053
    --------------------------------------------
      LOOP:  cpu time    0.3079: real time    0.3080

 eigenvalue-minimisations  :    64
 total energy-change (2. order) :-0.6858595E-05  (-0.5259858E-06)
 number of electron       8.0000000 magnetization 
 augmentation part        0.1841408 magnetization 

 Broyden mixing:
  rms(total) = 0.17011E-03    rms(broyden)= 0.16998E-03
  rms(prec ) = 0.21566E-03
  weight for this iteration     100.00

 eigenvalues of (default mixing * dielectric matrix)
  average eigenvalue GAMMA=   2.6111
  8.5194  5.4564  3.9637  2.8013  2.3190  2.3190  2.2277  1.2401  1.2401  0.9068
  1.0113  0.9697  0.9697

 Free energy of the ion-electron system (eV)
  ---------------------------------------------------
  alpha Z        PSCENC =         0.24039207
  Ewald energy   TEWEN  =       128.10313673
  -Hartree energ DENC   =      -283.97128859
  -exchange      EXHF   =         0.00000000
  -V(xc)+E(xc)   XCENC  =        24.69469074
  PAW double counting   =       461.49082121     -462.27505566
  entropy T*S    EENTRO =        -0.00000000
  eigenvalues    EBANDS =       -89.32091138
  atomic energy  EATOM  =       197.04175453
  Solvation  Ediel_sol  =         0.00000000
  ---------------------------------------------------
  free energy    TOTEN  =       -23.99646035 eV

  energy without entropy =      -23.99646035  energy(sigma->0) =      -23.99646035


--------------------------------------------------------------------------------------------------------




--------------------------------------- Iteration      1(  19)  ---------------------------------------


    POTLOK:  cpu time    0.1171: real time    0.1171
    SETDIJ:  cpu time    0.0014: real time    0.0014
    EDDIAG:  cpu time    0.0315: real time    0.0315
  RMM-DIIS:  cpu time    0.1098: real time    0.1098
    ORTHCH:  cpu time    0.0014: real time    0.0014
       DOS:  cpu time    0.0002: real time    0.0002
    CHARGE:  cpu time    0.0158: real time    0.0158
    MIXING:  cpu time    0.0056: real time    0.0056
    --------------------------------------------
      LOOP:  cpu time    0.2828: real time    0.2828

 eigenvalue-minimisations  :    48
 total energy-change (2. order) :-0.4201185E-05  (-0.2381287E-07)
 number of electron       8.0000000 magnetization 
 augmentation part        0.1841431 magnetization 

 Broyden mixing:
  rms(total) = 0.12972E-03    rms(broyden)= 0.12970E-03
  rms(prec ) = 0.17612E-03
  weight for this iteration     100.00

 eigenvalues of (default mixing * dielectric matrix)
  average eigenvalue GAMMA=   2.5619
  8.5640  5.5769  4.0484  3.5181  2.4266  2.4266  2.0096  1.2493  1.2493  1.0467
  0.9446  0.9250  0.9411  0.9411

 Free energy of the ion-electron system (eV)
  ---------------------------------------------------
  alpha Z        PSCENC =         0.24039207
  Ewald energy   TEWEN  =       128.10313673
  -Hartree energ DENC   =      -283.96892618
  -exchange      EXHF   =         0.00000000
  -V(xc)+E(xc)   XCENC  =        24.69441934
  PAW double counting   =       461.46466364     -462.24891522
  entropy T*S    EENTRO =        -0.00000000
  eigenvalues    EBANDS =       -89.32298946
  atomic energy  EATOM  =       197.04175453
  Solvation  Ediel_sol  =         0.00000000
  ---------------------------------------------------
  free energy    TOTEN  =       -23.99646456 eV

  energy without entropy =      -23.99646456  energy(sigma->0) =      -23.99646456


--------------------------------------------------------------------------------------------------------




--------------------------------------- Iteration      1(  20)  ---------------------------------------


    POTLOK:  cpu time    0.1173: real time    0.1173
    SETDIJ:  cpu time    0.0014: real time    0.0014
    EDDIAG:  cpu time    0.0313: real time    0.0313
  RMM-DIIS:  cpu time    0.1085: real time    0.1085
    ORTHCH:  cpu time    0.0013: real time    0.0013
       DOS:  cpu time    0.0001: real time    0.0001
    --------------------------------------------
      LOOP:  cpu time    0.2599: real time    0.2599

 eigenvalue-minimisations  :    48
 total energy-change (2. order) :-0.3616444E-06  (-0.4777848E-07)
 number of electron       8.0000000 magnetization 
 augmentation part        0.1841431 magnetization 

 Free energy of the ion-electron system (eV)
  ---------------------------------------------------
  alpha Z        PSCENC =         0.24039207
  Ewald energy   TEWEN  =       128.10313673
  -Hartree energ DENC   =      -283.97261960
  -exchange      EXHF   =         0.00000000
  -V(xc)+E(xc)   XCENC  =        24.69455532
  PAW double counting   =       461.46265071     -462.24695572
  entropy T*S    EENTRO =        -0.00000000
  eigenvalues    EBANDS =       -89.31937895
  atomic energy  EATOM  =       197.04175453
  Solvation  Ediel_sol  =         0.00000000
  ---------------------------------------------------
  free energy    TOTEN  =       -23.99646492 eV

  energy without entropy =      -23.99646492  energy(sigma->0) =      -23.99646492


--------------------------------------------------------------------------------------------------------




 average (electrostatic) potential at core
  the test charge radii are     0.5201  0.6991
  (the norm of the test charge is              1.0000)
       1 -41.3853       2 -41.6993       3 -41.2928       4 -41.5144       5 -57.9913
 
 
 
 E-fermi :  -8.2211     XC(G=0):  -0.6988     alpha+bet : -0.2091


 k-point     1 :       0.2500    0.2500    0.2500
  band No.  band energies     occupation 
      1     -16.8559      2.00000
      2      -9.3558      2.00000
      3      -9.2532      2.00000
      4      -9.1945      2.00000
      5      -0.3267      0.00000
      6       0.5588      0.00000
      7       0.6765      0.00000
      8       0.7010      0.00000

 k-point     2 :      -0.2500    0.2500    0.2500
  band No.  band energies     occupation 
      1     -16.8560      2.00000
      2      -9.3559      2.00000
      3      -9.2533      2.00000
      4      -9.1947      2.00000
      5      -0.3240      0.00000
      6       0.5480      0.00000
      7       0.6677      0.00000
      8       0.6961      0.00000

 k-point     3 :       0.2500   -0.2500    0.2500
  band No.  band energies     occupation 
      1     -16.8559      2.00000
      2      -9.3559      2.00000
      3      -9.2533      2.00000
      4      -9.1947      2.00000
      5      -0.3204      0.00000
      6       0.5378      0.00000
      7       0.6560      0.00000
      8       0.6933      0.00000

 k-point     4 :      -0.2500   -0.2500    0.2500
  band No.  band energies     occupation 
      1     -16.8559      2.00000
      2      -9.3558      2.00000
      3      -9.2533      2.00000
      4      -9.1947      2.00000
      5      -0.3229      0.00000
      6       0.5469      0.00000
      7       0.6635      0.00000
      8       0.6978      0.00000


--------------------------------------------------------------------------------------------------------


 soft charge-density along one line, spin component           1
         0         1         2         3         4         5         6         7         8         9
 total charge-density along one line
 
 pseudopotential strength for first ion, spin component:           1
 -2.340  -4.032  -0.001  -0.001   0.001
 -4.032  -6.861  -0.003  -0.004   0.002
 -0.001  -0.003  -0.338   0.002  -0.001
 -0.001  -0.004   0.002  -0.337  -0.001
  0.001   0.002  -0.001  -0.001  -0.339
 total augmentation occupancy for first ion, spin component:           1
  3.485  -0.629   0.238   0.313  -0.123
 -0.629   0.127  -0.044  -0.058   0.023
  0.238  -0.044   0.022   0.018  -0.007
  0.313  -0.058   0.018   0.032  -0.009
 -0.123   0.023  -0.007  -0.009   0.012


------------------------ aborting loop because EDIFF is reached ----------------------------------------


    CHARGE:  cpu time    0.0157: real time    0.0157
    FORLOC:  cpu time    0.0101: real time    0.0101
    FORNL :  cpu time    0.0172: real time    0.0172
    STRESS:  cpu time    0.1377: real time    0.1377
    FORCOR:  cpu time    0.1173: real time    0.1173
    FORHAR:  cpu time    0.0366: real time    0.0366
    MIXING:  cpu time    0.0059: real time    0.0059
    OFIELD:  cpu time    0.0000: real time    0.0000

  FORCE on cell =-STRESS in cart. coord.  units (eV):
  Direction    XX          YY          ZZ          XY          YZ          ZX
  --------------------------------------------------------------------------------------
  Alpha Z     0.24039     0.24039     0.24039
  Ewald      45.52901    40.23644    42.33764    -0.50596     0.60234     1.01697
  Hartree    96.86566    92.26888    94.83798     0.29487     0.59794     0.12930
  E(xc)     -27.17203   -27.14490   -27.16281     0.00213     0.00493     0.00271
  Local    -200.75599  -191.59430  -196.14745    -0.13249    -1.29524    -0.85794
  n-local   -15.89600   -15.69725   -15.78949     0.05432     0.03060    -0.02460
  augment     0.11215     0.12170     0.11946     0.00351     0.00141    -0.00260
  Kinetic   101.48379   100.06605   100.99099    -0.15025    -0.24731    -0.10907
  Fock        0.00000     0.00000     0.00000     0.00000     0.00000     0.00000
  -------------------------------------------------------------------------------------
  Total       0.40698    -1.50298    -0.57329    -0.43386    -0.30534     0.15478
  in kB       0.64705    -2.38956    -0.91146    -0.68979    -0.48545     0.24608
  external pressure =       -0.88 kB  Pullay stress =        0.00 kB

  kinetic pressure (ideal gas correction) =      0.00 kB
  total pressure  =     -0.88 kB
  Total+kin.     0.647      -2.390      -0.911      -0.690      -0.485       0.246

 VOLUME and BASIS-vectors are now :
 -----------------------------------------------------------------------------
  energy-cutoff  :      400.00
  volume of cell :     1007.73
      direct lattice vectors                 reciprocal lattice vectors
     9.796344205  0.000000000  0.000000000     0.102078896 -0.001692254  0.000094477
     0.170564626 10.288673672  0.000000000     0.000000000  0.097194258 -0.002074946
    -0.005715156  0.213445927  9.998195981     0.000000000  0.000000000  0.100018043

  length of vectors
     9.796344205 10.290087377 10.000475724     0.102092966  0.097216404  0.100018043


 FORCES acting on ions
    electron-ion (+dipol)            ewald-force                    non-local-force                 convergence-correction
 -----------------------------------------------------------------------------------------------
   -.158E+02 0.299E+02 0.396E+02   0.173E+02 -.325E+02 -.433E+02   -.157E+01 0.305E+01 0.400E+01   -.498E-04 0.486E-04 0.891E-04
   0.533E+02 -.684E+01 0.360E+01   -.600E+02 0.771E+01 -.404E+01   0.583E+01 -.738E+00 0.394E+00   0.118E-03 -.195E-04 0.148E-04
   -.228E+02 -.461E+02 0.127E+01   0.247E+02 0.498E+02 -.142E+01   -.222E+01 -.456E+01 0.109E+00   -.655E-04 -.833E-04 0.471E-05
   -.116E+02 0.245E+02 -.454E+02   0.129E+02 -.270E+02 0.503E+02   -.120E+01 0.257E+01 -.475E+01   -.439E-04 0.382E-04 -.945E-04
   -.437E+01 -.182E+01 0.131E+01   0.516E+01 0.208E+01 -.152E+01   0.384E+00 0.873E-01 -.119E+00   -.111E-03 -.395E-04 0.393E-04
 -----------------------------------------------------------------------------------------------
   -.123E+01 -.414E+00 0.365E+00   -.711E-14 -.355E-14 0.000E+00   0.122E+01 0.414E+00 -.365E+00   -.152E-03 -.555E-04 0.535E-04
 
 
 POSITION                                       TOTAL-FORCE (eV/Angst)
 -----------------------------------------------------------------------------------
      5.34000      4.26260      3.60730        -0.034598      0.395478      0.332844
      3.94420      5.03639      4.38327        -0.893493      0.126745     -0.043455
      5.50316      5.91314      4.42697        -0.307873     -0.881900     -0.044710
      5.24290      4.39561      5.39465         0.058885      0.011941      0.088167
      5.00474      4.90208      4.45404         1.176445      0.347366     -0.332747
 -----------------------------------------------------------------------------------
    total drift:                               -0.000634     -0.000370      0.000099


--------------------------------------------------------------------------------------------------------



  FREE ENERGIE OF THE ION-ELECTRON SYSTEM (eV)
  ---------------------------------------------------
  free  energy   TOTEN  =       -23.99646492 eV

  energy  without entropy=      -23.99646492  energy(sigma->0) =      -23.99646492
 


--------------------------------------------------------------------------------------------------------


    POTLOK:  cpu time    0.1190: real time    0.1191


--------------------------------------------------------------------------------------------------------


           RANDOM_SEED =         172289250                0                0
           RANDOM_SEED =         172289250               30                0
   IONSTEP:  cpu time    0.0023: real time    0.0023

  ENERGY OF THE ELECTRON-ION-THERMOSTAT SYSTEM (eV)
  ---------------------------------------------------
% ion-electron   TOTEN  =       -23.996465  see above
  kinetic energy EKIN   =         0.000630
  kin. lattice  EKIN_LAT=         0.000000  (temperature    1.22 K)
  nose potential ES     =         0.000000
  nose kinetic   EPS    =         0.000000
  ---------------------------------------------------
  total energy   ETOTAL =       -23.995835 eV

  maximum distance moved by ions :      0.22E-03

    WAVPRE:  cpu time    0.0352: real time    0.0352
    FEWALD:  cpu time    0.0003: real time    0.0003
    ORTHCH:  cpu time    0.0078: real time    0.0078
     LOOP+:  cpu time    6.1158: real time    6.1162


--------------------------------------- Iteration      2(   1)  ---------------------------------------


    POTLOK:  cpu time    0.1186: real time    0.1186
    SETDIJ:  cpu time    0.0014: real time    0.0014
     EDDAV:  cpu time    0.1816: real time    0.1816
       DOS:  cpu time    0.0002: real time    0.0002
    CHARGE:  cpu time    0.0155: real time    0.0155
    MIXING:  cpu time    0.0053: real time    0.0053
    --------------------------------------------
      LOOP:  cpu time    0.3227: real time    0.3227

 eigenvalue-minimisations  :    96
 total energy-change (2. order) :-0.4870062E-02  (-0.5362998E-03)
 number of electron       8.0000000 magnetization 
 augmentation part        0.1841993 magnetization 

 Broyden mixing:
  rms(total) = 0.32817E-02    rms(broyden)= 0.32779E-02
  rms(prec ) = 0.38015E-02
  weight for this iteration     100.00

 Free energy of the ion-electron system (eV)
  ---------------------------------------------------
  alpha Z        PSCENC =         0.24039207
  Ewald energy   TEWEN  =       128.14911509
  -Hartree energ DENC   =      -284.00630034
  -exchange      EXHF   =         0.00000000
  -V(xc)+E(xc)   XCENC  =        24.69619629
  PAW double counting   =       461.46274530     -462.24703494
  entropy T*S    EENTRO =        -0.00000000
  eigenvalues    EBANDS =       -89.33820261
  atomic energy  EATOM  =       197.04175453
  Solvation  Ediel_sol  =         0.00000000
  ---------------------------------------------------
  free energy    TOTEN  =       -24.00133462 eV

  energy without entropy =      -24.00133462  energy(sigma->0) =      -24.00133462


--------------------------------------------------------------------------------------------------------




--------------------------------------- Iteration      2(   2)  ---------------------------------------


    POTLOK:  cpu time    0.1206: real time    0.1206
    SETDIJ:  cpu time    0.0014: real time    0.0014
    EDDIAG:  cpu time    0.0315: real time    0.0315
  RMM-DIIS:  cpu time    0.1367: real time    0.1367
    ORTHCH:  cpu time    0.0014: real time    0.0014
       DOS:  cpu time    0.0002: real time    0.0002
    CHARGE:  cpu time    0.0159: real time    0.0159
    MIXING:  cpu time    0.0039: real time    0.0039
    --------------------------------------------
      LOOP:  cpu time    0.3115: real time    0.3115

 eigenvalue-minimisations  :    64
 total energy-change (2. order) : 0.6180150E-05  (-0.1016482E-04)
 number of electron       8.0000000 magnetization 
 augmentation part        0.1841919 magnetization 

 Broyden mixing:
  rms(total) = 0.19846E-02    rms(broyden)= 0.19841E-02
  rms(prec ) = 0.22923E-02
  weight for this iteration     100.00

 eigenvalues of (default mixing * dielectric matrix)
  average eigenvalue GAMMA=   2.1950
  2.1950

 Free energy of the ion-electron system (eV)
  ---------------------------------------------------
  alpha Z        PSCENC =         0.24039207
  Ewald energy   TEWEN  =       128.14911509
  -Hartree energ DENC   =      -284.01467352
  -exchange      EXHF   =         0.00000000
  -V(xc)+E(xc)   XCENC  =        24.69660927
  PAW double counting   =       461.56335818     -462.34771814
  entropy T*S    EENTRO =        -0.00000000
  eigenvalues    EBANDS =       -89.33016591
  atomic energy  EATOM  =       197.04175453
  Solvation  Ediel_sol  =         0.00000000
  ---------------------------------------------------
  free energy    TOTEN  =       -24.00132844 eV

  energy without entropy =      -24.00132844  energy(sigma->0) =      -24.00132844


--------------------------------------------------------------------------------------------------------




--------------------------------------- Iteration      2(   3)  ---------------------------------------


    POTLOK:  cpu time    0.1194: real time    0.1194
    SETDIJ:  cpu time    0.0014: real time    0.0014
    EDDIAG:  cpu time    0.0315: real time    0.0315
  RMM-DIIS:  cpu time    0.1394: real time    0.1395
    ORTHCH:  cpu time    0.0015: real time    0.0015
       DOS:  cpu time    0.0002: real time    0.0002
    CHARGE:  cpu time    0.0161: real time    0.0161
    MIXING:  cpu time    0.0039: real time    0.0039
    --------------------------------------------
      LOOP:  cpu time    0.3134: real time    0.3134

 eigenvalue-minimisations  :    64
 total energy-change (2. order) : 0.1927631E-05  (-0.2232917E-05)
 number of electron       8.0000000 magnetization 
 augmentation part        0.1841811 magnetization 

 Broyden mixing:
  rms(total) = 0.24078E-03    rms(broyden)= 0.24007E-03
  rms(prec ) = 0.33482E-03
  weight for this iteration     100.00

 eigenvalues of (default mixing * dielectric matrix)
  average eigenvalue GAMMA=   1.6346
  1.0142  2.2550

 Free energy of the ion-electron system (eV)
  ---------------------------------------------------
  alpha Z        PSCENC =         0.24039207
  Ewald energy   TEWEN  =       128.14911509
  -Hartree energ DENC   =      -284.02188220
  -exchange      EXHF   =         0.00000000
  -V(xc)+E(xc)   XCENC  =        24.69697498
  PAW double counting   =       461.64640948     -462.43083418
  entropy T*S    EENTRO =        -0.00000000
  eigenvalues    EBANDS =       -89.32325628
  atomic energy  EATOM  =       197.04175453
  Solvation  Ediel_sol  =         0.00000000
  ---------------------------------------------------
  free energy    TOTEN  =       -24.00132651 eV

  energy without entropy =      -24.00132651  energy(sigma->0) =      -24.00132651


--------------------------------------------------------------------------------------------------------




--------------------------------------- Iteration      2(   4)  ---------------------------------------


    POTLOK:  cpu time    0.1197: real time    0.1197
    SETDIJ:  cpu time    0.0014: real time    0.0014
    EDDIAG:  cpu time    0.0314: real time    0.0314
  RMM-DIIS:  cpu time    0.1099: real time    0.1099
    ORTHCH:  cpu time    0.0014: real time    0.0014
       DOS:  cpu time    0.0002: real time    0.0002
    --------------------------------------------
      LOOP:  cpu time    0.2639: real time    0.2639

 eigenvalue-minimisations  :    48
 total energy-change (2. order) : 0.2891257E-06  (-0.4884460E-07)
 number of electron       8.0000000 magnetization 
 augmentation part        0.1841811 magnetization 

 Free energy of the ion-electron system (eV)
  ---------------------------------------------------
  alpha Z        PSCENC =         0.24039207
  Ewald energy   TEWEN  =       128.14911509
  -Hartree energ DENC   =      -284.01959432
  -exchange      EXHF   =         0.00000000
  -V(xc)+E(xc)   XCENC  =        24.69687680
  PAW double counting   =       461.64292276     -462.42731715
  entropy T*S    EENTRO =        -0.00000000
  eigenvalues    EBANDS =       -89.32547599
  atomic energy  EATOM  =       197.04175453
  Solvation  Ediel_sol  =         0.00000000
  ---------------------------------------------------
  free energy    TOTEN  =       -24.00132622 eV

  energy without entropy =      -24.00132622  energy(sigma->0) =      -24.00132622


--------------------------------------------------------------------------------------------------------




 average (electrostatic) potential at core
  the test charge radii are     0.5201  0.6991
  (the norm of the test charge is              1.0000)
       1 -41.3935       2 -41.6785       3 -41.3075       4 -41.5120       5 -57.9893
 
 
 
 E-fermi :  -8.2202     XC(G=0):  -0.6961     alpha+bet : -0.2091


 k-point     1 :       0.2500    0.2500    0.2500
  band No.  band energies     occupation 
      1     -16.8564      2.00000
      2      -9.3481      2.00000
      3      -9.2602      2.00000
      4      -9.1977      2.00000
      5      -0.3255      0.00000
      6       0.5641      0.00000
      7       0.6763      0.00000
      8       0.7035      0.00000

 k-point     2 :      -0.2500    0.2500    0.2500
  band No.  band energies     occupation 
      1     -16.8565      2.00000
      2      -9.3482      2.00000
      3      -9.2603      2.00000
      4      -9.1979      2.00000
      5      -0.3228      0.00000
      6       0.5532      0.00000
      7       0.6688      0.00000
      8       0.6974      0.00000

 k-point     3 :       0.2500   -0.2500    0.2500
  band No.  band energies     occupation 
      1     -16.8565      2.00000
      2      -9.3482      2.00000
      3      -9.2603      2.00000
      4      -9.1979      2.00000
      5      -0.3192      0.00000
      6       0.5432      0.00000
      7       0.6575      0.00000
      8       0.6939      0.00000

 k-point     4 :      -0.2500   -0.2500    0.2500
  band No.  band energies     occupation 
      1     -16.8565      2.00000
      2      -9.3481      2.00000
      3      -9.2603      2.00000
      4      -9.1979      2.00000
      5      -0.3219      0.00000
      6       0.5532      0.00000
      7       0.6647      0.00000
      8       0.6980      0.00000


--------------------------------------------------------------------------------------------------------


 soft charge-density along one line, spin component           1
         0         1         2         3         4         5         6         7         8         9
 total charge-density along one line
 
 pseudopotential strength for first ion, spin component:           1
 -2.340  -4.032  -0.001  -0.001   0.001
 -4.032  -6.862  -0.003  -0.004   0.002
 -0.001  -0.003  -0.338   0.002  -0.001
 -0.001  -0.004   0.002  -0.337  -0.001
  0.001   0.002  -0.001  -0.001  -0.339
 total augmentation occupancy for first ion, spin component:           1
  3.490  -0.630   0.238   0.314  -0.124
 -0.630   0.127  -0.044  -0.059   0.023
  0.238  -0.044   0.022   0.018  -0.007
  0.314  -0.059   0.018   0.032  -0.009
 -0.124   0.023  -0.007  -0.009   0.012


------------------------ aborting loop because EDIFF is reached ----------------------------------------


    CHARGE:  cpu time    0.0157: real time    0.0157
    FORLOC:  cpu time    0.0100: real time    0.0100
    FORNL :  cpu time    0.0173: real time    0.0173
    STRESS:  cpu time    0.1373: real time    0.1373
    FORCOR:  cpu time    0.1187: real time    0.1187
    FORHAR:  cpu time    0.0392: real time    0.0391
    MIXING:  cpu time    0.0055: real time    0.0055
    OFIELD:  cpu time    0.0000: real time    0.0000

  FORCE on cell =-STRESS in cart. coord.  units (eV):
  Direction    XX          YY          ZZ          XY          YZ          ZX
  --------------------------------------------------------------------------------------
  Alpha Z     0.24039     0.24039     0.24039
  Ewald      45.46105    40.31043    42.37758    -0.44879     0.62317     0.97563
  Hartree    96.91647    92.24743    94.85201     0.28491     0.58805     0.13080
  E(xc)     -27.17384   -27.14791   -27.16526     0.00194     0.00474     0.00275
  Local    -200.79746  -191.60004  -196.19000    -0.15164    -1.29106    -0.83467
  n-local   -15.89205   -15.70835   -15.79451     0.05036     0.02829    -0.02262
  augment     0.11278     0.12113     0.11925     0.00323     0.00124    -0.00242
  Kinetic   101.46385   100.10696   101.00272    -0.13862    -0.23808    -0.11202
  Fock        0.00000     0.00000     0.00000     0.00000     0.00000     0.00000
  -------------------------------------------------------------------------------------
  Total       0.33119    -1.42995    -0.55781    -0.39861    -0.28365     0.13745
  in kB       0.52655    -2.27346    -0.88686    -0.63375    -0.45097     0.21852
  external pressure =       -0.88 kB  Pullay stress =        0.00 kB

  kinetic pressure (ideal gas correction) =      0.00 kB
  total pressure  =     -0.88 kB
  Total+kin.     0.530      -2.270      -0.886      -0.633      -0.450       0.219

 VOLUME and BASIS-vectors are now :
 -----------------------------------------------------------------------------
  energy-cutoff  :      400.00
  volume of cell :     1007.73
      direct lattice vectors                 reciprocal lattice vectors
     9.796344205  0.000000000  0.000000000     0.102078896 -0.001692254  0.000094477
     0.170564626 10.288673672  0.000000000     0.000000000  0.097194258 -0.002074946
    -0.005715156  0.213445927  9.998195981     0.000000000  0.000000000  0.100018043

  length of vectors
     9.796344205 10.290087377 10.000475724     0.102092966  0.097216404  0.100018043


 FORCES acting on ions
    electron-ion (+dipol)            ewald-force                    non-local-force                 convergence-correction
 -----------------------------------------------------------------------------------------------
   -.158E+02 0.299E+02 0.397E+02   0.173E+02 -.326E+02 -.434E+02   -.157E+01 0.306E+01 0.402E+01   0.645E-03 0.616E-03 0.200E-03
   0.532E+02 -.682E+01 0.358E+01   -.598E+02 0.767E+01 -.401E+01   0.579E+01 -.733E+00 0.391E+00   0.724E-03 0.267E-03 -.203E-03
   -.228E+02 -.462E+02 0.128E+01   0.248E+02 0.500E+02 -.143E+01   -.224E+01 -.459E+01 0.110E+00   0.432E-03 -.485E-03 -.258E-03
   -.116E+02 0.245E+02 -.454E+02   0.129E+02 -.270E+02 0.503E+02   -.120E+01 0.257E+01 -.475E+01   0.680E-03 0.398E-03 -.523E-03
   -.410E+01 -.173E+01 0.123E+01   0.482E+01 0.198E+01 -.143E+01   0.330E+00 0.742E-01 -.104E+00   0.501E-02 0.152E-02 -.122E-02
 -----------------------------------------------------------------------------------------------
   -.112E+01 -.387E+00 0.339E+00   0.178E-14 0.000E+00 0.000E+00   0.111E+01 0.384E+00 -.336E+00   0.749E-02 0.232E-02 -.201E-02
 
 
 POSITION                                       TOTAL-FORCE (eV/Angst)
 -----------------------------------------------------------------------------------
      5.33991      4.26356      3.60810        -0.026674      0.371179      0.305021
      3.94205      5.03669      4.38316        -0.807201      0.114576     -0.037223
      5.50242      5.91102      4.42687        -0.281615     -0.821845     -0.044850
[...]

  ENERGY OF THE ELECTRON-ION-THERMOSTAT SYSTEM (eV)
  ---------------------------------------------------
% ion-electron   TOTEN  =       -24.010229  see above
  kinetic energy EKIN   =         0.014134
  kin. lattice  EKIN_LAT=         0.000000  (temperature   27.34 K)
  nose potential ES     =         0.000000
  nose kinetic   EPS    =         0.000000
  ---------------------------------------------------
  total energy   ETOTAL =       -23.996096 eV

  maximum distance moved by ions :      0.48E-03

    WAVPRE:  cpu time    0.0402: real time    0.0402
    FEWALD:  cpu time    0.0003: real time    0.0003
    ORTHCH:  cpu time    0.0078: real time    0.0078
 Prediction of Wavefunctions ALPHA= 2.165 BETA=-1.205
     LOOP+:  cpu time    1.9209: real time    1.9210


--------------------------------------- Iteration     10(   1)  ---------------------------------------


    POTLOK:  cpu time    0.1172: real time    0.1172
    SETDIJ:  cpu time    0.0014: real time    0.0014
     EDDAV:  cpu time    0.1365: real time    0.1365
       DOS:  cpu time    0.0002: real time    0.0002
    CHARGE:  cpu time    0.0152: real time    0.0152
    MIXING:  cpu time    0.0038: real time    0.0038
    --------------------------------------------
      LOOP:  cpu time    0.2743: real time    0.2743

 eigenvalue-minimisations  :    64
 total energy-change (2. order) : 0.7470807E-02  (-0.6675408E-04)
 number of electron       7.9999999 magnetization 
 augmentation part        0.1862379 magnetization 

 Broyden mixing:
  rms(total) = 0.26067E-03    rms(broyden)= 0.25992E-03
  rms(prec ) = 0.30306E-03
  weight for this iteration     100.00

 Free energy of the ion-electron system (eV)
  ---------------------------------------------------
  alpha Z        PSCENC =         0.24039207
  Ewald energy   TEWEN  =       129.90177988
  -Hartree energ DENC   =      -285.55515966
  -exchange      EXHF   =         0.00000000
  -V(xc)+E(xc)   XCENC  =        24.77827933
  PAW double counting   =       472.31283017     -473.10342110
  entropy T*S    EENTRO =        -0.00000000
  eigenvalues    EBANDS =       -89.61921376
  atomic energy  EATOM  =       197.04175453
  Solvation  Ediel_sol  =         0.00000000
  ---------------------------------------------------
  free energy    TOTEN  =       -24.00275854 eV

  energy without entropy =      -24.00275854  energy(sigma->0) =      -24.00275854


--------------------------------------------------------------------------------------------------------




--------------------------------------- Iteration     10(   2)  ---------------------------------------


    POTLOK:  cpu time    0.1159: real time    0.1159
    SETDIJ:  cpu time    0.0014: real time    0.0014
    EDDIAG:  cpu time    0.0311: real time    0.0311
  RMM-DIIS:  cpu time    0.1380: real time    0.1380
    ORTHCH:  cpu time    0.0013: real time    0.0013
       DOS:  cpu time    0.0002: real time    0.0002
    CHARGE:  cpu time    0.0158: real time    0.0158
    MIXING:  cpu time    0.0040: real time    0.0040
    --------------------------------------------
      LOOP:  cpu time    0.3076: real time    0.3076

 eigenvalue-minimisations  :    64
 total energy-change (2. order) :-0.1622631E-05  (-0.1090613E-05)
 number of electron       7.9999999 magnetization 
 augmentation part        0.1862354 magnetization 

 Broyden mixing:
  rms(total) = 0.13961E-03    rms(broyden)= 0.13916E-03
  rms(prec ) = 0.16844E-03
  weight for this iteration     100.00

 eigenvalues of (default mixing * dielectric matrix)
  average eigenvalue GAMMA=   0.7357
  0.7357

 Free energy of the ion-electron system (eV)
  ---------------------------------------------------
  alpha Z        PSCENC =         0.24039207
  Ewald energy   TEWEN  =       129.90177988
  -Hartree energ DENC   =      -285.55660825
  -exchange      EXHF   =         0.00000000
  -V(xc)+E(xc)   XCENC  =        24.77829920
  PAW double counting   =       472.29955273     -473.09013693
  entropy T*S    EENTRO =        -0.00000000
  eigenvalues    EBANDS =       -89.61779341
  atomic energy  EATOM  =       197.04175453
  Solvation  Ediel_sol  =         0.00000000
  ---------------------------------------------------
  free energy    TOTEN  =       -24.00276016 eV

  energy without entropy =      -24.00276016  energy(sigma->0) =      -24.00276016


--------------------------------------------------------------------------------------------------------




--------------------------------------- Iteration     10(   3)  ---------------------------------------


    POTLOK:  cpu time    0.1171: real time    0.1171
    SETDIJ:  cpu time    0.0014: real time    0.0014
    EDDIAG:  cpu time    0.0312: real time    0.0312
  RMM-DIIS:  cpu time    0.1098: real time    0.1098
    ORTHCH:  cpu time    0.0013: real time    0.0013
       DOS:  cpu time    0.0002: real time    0.0002
    CHARGE:  cpu time    0.0157: real time    0.0157
    MIXING:  cpu time    0.0040: real time    0.0040
    --------------------------------------------
      LOOP:  cpu time    0.2808: real time    0.2808

 eigenvalue-minimisations  :    48
 total energy-change (2. order) :-0.3938283E-06  (-0.2488099E-07)
 number of electron       7.9999999 magnetization 
 augmentation part        0.1862350 magnetization 

 Broyden mixing:
  rms(total) = 0.10573E-03    rms(broyden)= 0.10570E-03
  rms(prec ) = 0.12936E-03
  weight for this iteration     100.00

 eigenvalues of (default mixing * dielectric matrix)
  average eigenvalue GAMMA=   1.6636
  1.0827  2.2445

 Free energy of the ion-electron system (eV)
  ---------------------------------------------------
  alpha Z        PSCENC =         0.24039207
  Ewald energy   TEWEN  =       129.90177988
  -Hartree energ DENC   =      -285.55555749
  -exchange      EXHF   =         0.00000000
  -V(xc)+E(xc)   XCENC  =        24.77824511
  PAW double counting   =       472.27842620     -473.06899578
  entropy T*S    EENTRO =        -0.00000000
  eigenvalues    EBANDS =       -89.61880507
  atomic energy  EATOM  =       197.04175453
  Solvation  Ediel_sol  =         0.00000000
  ---------------------------------------------------
  free energy    TOTEN  =       -24.00276056 eV

  energy without entropy =      -24.00276056  energy(sigma->0) =      -24.00276056


--------------------------------------------------------------------------------------------------------




--------------------------------------- Iteration     10(   4)  ---------------------------------------


    POTLOK:  cpu time    0.1176: real time    0.1176
    SETDIJ:  cpu time    0.0014: real time    0.0014
    EDDIAG:  cpu time    0.0311: real time    0.0311
  RMM-DIIS:  cpu time    0.1097: real time    0.1097
    ORTHCH:  cpu time    0.0015: real time    0.0015
       DOS:  cpu time    0.0002: real time    0.0002
    CHARGE:  cpu time    0.0157: real time    0.0157
    MIXING:  cpu time    0.0041: real time    0.0041
    --------------------------------------------
      LOOP:  cpu time    0.2812: real time    0.2813

 eigenvalue-minimisations  :    48
 total energy-change (2. order) :-0.1005548E-05  (-0.2490445E-07)
 number of electron       7.9999999 magnetization 
 augmentation part        0.1862377 magnetization 

 Broyden mixing:
  rms(total) = 0.37225E-04    rms(broyden)= 0.37198E-04
  rms(prec ) = 0.53484E-04
  weight for this iteration     100.00

 eigenvalues of (default mixing * dielectric matrix)
  average eigenvalue GAMMA=   1.1891
  2.2143  1.0760  0.2770

 Free energy of the ion-electron system (eV)
  ---------------------------------------------------
  alpha Z        PSCENC =         0.24039207
  Ewald energy   TEWEN  =       129.90177988
  -Hartree energ DENC   =      -285.55283704
  -exchange      EXHF   =         0.00000000
  -V(xc)+E(xc)   XCENC  =        24.77811294
  PAW double counting   =       472.22641839     -473.01695041
  entropy T*S    EENTRO =        -0.00000000
  eigenvalues    EBANDS =       -89.62143193
  atomic energy  EATOM  =       197.04175453
  Solvation  Ediel_sol  =         0.00000000
  ---------------------------------------------------
  free energy    TOTEN  =       -24.00276156 eV

  energy without entropy =      -24.00276156  energy(sigma->0) =      -24.00276156


--------------------------------------------------------------------------------------------------------




--------------------------------------- Iteration     10(   5)  ---------------------------------------


    POTLOK:  cpu time    0.1177: real time    0.1177
    SETDIJ:  cpu time    0.0014: real time    0.0014
    EDDIAG:  cpu time    0.0311: real time    0.0311
  RMM-DIIS:  cpu time    0.1042: real time    0.1042
    ORTHCH:  cpu time    0.0013: real time    0.0013
       DOS:  cpu time    0.0002: real time    0.0001
    --------------------------------------------
      LOOP:  cpu time    0.2558: real time    0.2558

 eigenvalue-minimisations  :    40
 total energy-change (2. order) :-0.4458869E-07  (-0.1876320E-08)
 number of electron       7.9999999 magnetization 
 augmentation part        0.1862377 magnetization 

 Free energy of the ion-electron system (eV)
  ---------------------------------------------------
  alpha Z        PSCENC =         0.24039207
  Ewald energy   TEWEN  =       129.90177988
  -Hartree energ DENC   =      -285.55304976
  -exchange      EXHF   =         0.00000000
  -V(xc)+E(xc)   XCENC  =        24.77812370
  PAW double counting   =       472.22689792     -473.01743224
  entropy T*S    EENTRO =        -0.00000000
  eigenvalues    EBANDS =       -89.62122771
  atomic energy  EATOM  =       197.04175453
  Solvation  Ediel_sol  =         0.00000000
  ---------------------------------------------------
  free energy    TOTEN  =       -24.00276161 eV

  energy without entropy =      -24.00276161  energy(sigma->0) =      -24.00276161


--------------------------------------------------------------------------------------------------------




 average (electrostatic) potential at core
  the test charge radii are     0.5201  0.6991
  (the norm of the test charge is              1.0000)
       1 -41.6059       2 -41.2846       3 -41.7253       4 -41.4640       5 -57.9457
 
 
 
 E-fermi :  -8.2456     XC(G=0):  -0.6871     alpha+bet : -0.2091


 k-point     1 :       0.2500    0.2500    0.2500
  band No.  band energies     occupation 
      1     -16.9115      2.00000
      2      -9.4310      2.00000
      3      -9.2989      2.00000
      4      -9.1691      2.00000
      5      -0.3130      0.00000
      6       0.5776      0.00000
      7       0.6852      0.00000
      8       0.7083      0.00000

 k-point     2 :      -0.2500    0.2500    0.2500
  band No.  band energies     occupation 
      1     -16.9115      2.00000
      2      -9.4311      2.00000
      3      -9.2990      2.00000
      4      -9.1692      2.00000
      5      -0.3099      0.00000
      6       0.5648      0.00000
      7       0.6777      0.00000
      8       0.7026      0.00000

 k-point     3 :       0.2500   -0.2500    0.2500
  band No.  band energies     occupation 
      1     -16.9115      2.00000
      2      -9.4311      2.00000
      3      -9.2989      2.00000
      4      -9.1692      2.00000
      5      -0.3054      0.00000
      6       0.5494      0.00000
      7       0.6691      0.00000
      8       0.6969      0.00000

 k-point     4 :      -0.2500   -0.2500    0.2500
  band No.  band energies     occupation 
      1     -16.9115      2.00000
      2      -9.4311      2.00000
      3      -9.2990      2.00000
      4      -9.1691      2.00000
      5      -0.3093      0.00000
      6       0.5636      0.00000
      7       0.6761      0.00000
      8       0.7043      0.00000


--------------------------------------------------------------------------------------------------------


 soft charge-density along one line, spin component           1
         0         1         2         3         4         5         6         7         8         9
 total charge-density along one line
 
 pseudopotential strength for first ion, spin component:           1
 -2.342  -4.036  -0.001  -0.001   0.001
 -4.036  -6.868  -0.003  -0.004   0.002
 -0.001  -0.003  -0.336   0.002  -0.001
 -0.001  -0.004   0.002  -0.335  -0.001
  0.001   0.002  -0.001  -0.001  -0.338
 total augmentation occupancy for first ion, spin component:           1
  3.598  -0.646   0.254   0.342  -0.137
 -0.646   0.130  -0.047  -0.063   0.025
  0.254  -0.047   0.025   0.020  -0.008
  0.342  -0.063   0.020   0.037  -0.011
 -0.137   0.025  -0.008  -0.011   0.014


------------------------ aborting loop because EDIFF is reached ----------------------------------------


    CHARGE:  cpu time    0.0155: real time    0.0155
    FORLOC:  cpu time    0.0101: real time    0.0101
    FORNL :  cpu time    0.0172: real time    0.0172
    STRESS:  cpu time    0.1372: real time    0.1373
    FORCOR:  cpu time    0.1189: real time    0.1189
    FORHAR:  cpu time    0.0391: real time    0.0391
    MIXING:  cpu time    0.0047: real time    0.0047
    OFIELD:  cpu time    0.0000: real time    0.0000

  FORCE on cell =-STRESS in cart. coord.  units (eV):
  Direction    XX          YY          ZZ          XY          YZ          ZX
  --------------------------------------------------------------------------------------
  Alpha Z     0.24039     0.24039     0.24039
  Ewald      44.66531    41.64976    43.58667     0.92241     0.90273    -0.18954
  Hartree    98.27707    91.81891    95.45926     0.06757     0.32086     0.09507
  E(xc)     -27.24781   -27.25184   -27.25133    -0.00227    -0.00051     0.00202
  Local    -202.38167  -191.45275  -197.74438    -0.61923    -0.99393    -0.05076
  n-local   -15.89795   -16.05553   -15.98786    -0.04249    -0.02395     0.02124
  augment     0.12159     0.10675     0.11433    -0.00405    -0.00235     0.00164
  Kinetic   101.25144   101.46502   101.44095     0.11087     0.02688    -0.09905
  Fock        0.00000     0.00000     0.00000     0.00000     0.00000     0.00000
  -------------------------------------------------------------------------------------
  Total      -0.97164     0.52071    -0.14197     0.43282     0.22974    -0.21937
  in kB      -1.54479     0.82786    -0.22572     0.68813     0.36526    -0.34877
  external pressure =       -0.31 kB  Pullay stress =        0.00 kB

  kinetic pressure (ideal gas correction) =      0.01 kB
  total pressure  =     -0.30 kB
  Total+kin.    -1.536       0.850      -0.224       0.691       0.371      -0.348

 VOLUME and BASIS-vectors are now :
 -----------------------------------------------------------------------------
  energy-cutoff  :      400.00
  volume of cell :     1007.73
      direct lattice vectors                 reciprocal lattice vectors
     9.796344205  0.000000000  0.000000000     0.102078896 -0.001692254  0.000094477
     0.170564626 10.288673672  0.000000000     0.000000000  0.097194258 -0.002074946
    -0.005715156  0.213445927  9.998195981     0.000000000  0.000000000  0.100018043

  length of vectors
     9.796344205 10.290087377 10.000475724     0.102092966  0.097216404  0.100018043


 FORCES acting on ions
    electron-ion (+dipol)            ewald-force                    non-local-force                 convergence-correction
 -----------------------------------------------------------------------------------------------
   -.164E+02 0.304E+02 0.409E+02   0.183E+02 -.339E+02 -.456E+02   -.174E+01 0.325E+01 0.436E+01   0.553E-04 -.150E-03 -.171E-03
   0.512E+02 -.647E+01 0.327E+01   -.555E+02 0.701E+01 -.353E+01   0.506E+01 -.633E+00 0.322E+00   -.242E-03 0.923E-05 -.215E-05
   -.242E+02 -.484E+02 0.156E+01   0.273E+02 0.545E+02 -.176E+01   -.265E+01 -.530E+01 0.165E+00   0.101E-03 0.208E-03 0.202E-05
   -.114E+02 0.243E+02 -.455E+02   0.126E+02 -.267E+02 0.501E+02   -.117E+01 0.251E+01 -.469E+01   0.299E-04 -.123E-03 0.209E-03
   0.213E+01 0.666E+00 -.648E+00   -.276E+01 -.925E+00 0.851E+00   -.694E+00 -.274E+00 0.212E+00   -.860E-05 -.117E-03 0.557E-04
 -----------------------------------------------------------------------------------------------
   0.120E+01 0.451E+00 -.368E+00   0.178E-14 0.355E-14 -.711E-14   -.120E+01 -.451E+00 0.368E+00   -.643E-04 -.171E-03 0.943E-04
 
 
 POSITION                                       TOTAL-FORCE (eV/Angst)
 -----------------------------------------------------------------------------------
      5.34148      4.28947      3.62516         0.156339     -0.250404     -0.372051
      3.89684      5.04322      4.38188         0.762048     -0.099089      0.058678
      5.48808      5.85932      4.42212         0.432807      0.836014     -0.038164
      5.24688      4.39814      5.40005        -0.027441      0.046177     -0.063958
      5.00948      4.90355      4.45262        -1.323961     -0.532745      0.415943
 -----------------------------------------------------------------------------------
    total drift:                               -0.000208     -0.000048      0.000448


--------------------------------------------------------------------------------------------------------



  FREE ENERGIE OF THE ION-ELECTRON SYSTEM (eV)
  ---------------------------------------------------
  free  energy   TOTEN  =       -24.00276161 eV

  energy  without entropy=      -24.00276161  energy(sigma->0) =      -24.00276161
 
 d Force =-0.7469824E-02[-0.820E-02,-0.674E-02]  d Energy =-0.7467890E-02-0.193E-05
 d Force =-0.2017992E+00[-0.203E+00,-0.200E+00]  d Ewald  =-0.2017983E+00-0.946E-06


--------------------------------------------------------------------------------------------------------


    POTLOK:  cpu time    0.1199: real time    0.1199


--------------------------------------------------------------------------------------------------------


           RANDOM_SEED =         172289250               30                0
   IONSTEP:  cpu time    0.0001: real time    0.0001

  ENERGY OF THE ELECTRON-ION-THERMOSTAT SYSTEM (eV)
  ---------------------------------------------------
% ion-electron   TOTEN  =       -24.002762  see above
  kinetic energy EKIN   =         0.006833
  kin. lattice  EKIN_LAT=         0.000000  (temperature   13.22 K)
  nose potential ES     =         0.000000
  nose kinetic   EPS    =         0.000000
  ---------------------------------------------------
  total energy   ETOTAL =       -23.995928 eV

  maximum distance moved by ions :      0.30E-03


 mean value of Nose-termostat <S>:     1.000 mean value of <T> :    33.603
 mean temperature <T/S>/<1/S>  :    33.603

    WAVPRE:  cpu time    0.0436: real time    0.0436
    FEWALD:  cpu time    0.0003: real time    0.0003
    ORTHCH:  cpu time    0.0079: real time    0.0079
 Prediction of Wavefunctions ALPHA= 2.107 BETA=-1.133
    POTLOK:  cpu time    0.1176: real time    0.1176
    EDDIAG:  cpu time    0.0316: real time    0.0316
     LOOP+:  cpu time    2.0676: real time    2.0677
    4ORBIT:  cpu time    0.0000: real time    0.0000

 total amount of memory used by VASP MPI-rank0    54181. kBytes
=======================================================================

   base      :      30000. kBytes
   nonl-proj :       2725. kBytes
   fftplans  :       7645. kBytes
   grid      :      12032. kBytes
   one-center:          6. kBytes
   wavefun   :       1773. kBytes
 
  
  
 General timing and accounting informations for this job:
 ========================================================
  
                  Total CPU time used (sec):       24.142
                            User time (sec):       22.886
                          System time (sec):        1.256
                         Elapsed time (sec):       24.387
  
                   Maximum memory used (kb):      176236.
                   Average memory used (kb):           0.
  
                          Minor page faults:       234751
                          Major page faults:            0
                 Voluntary context switches:           72
