ITEM: TIMESTEP
0
ITEM: NUMBER OF ATOMS
1536
ITEM: BOX BOUNDS pp pp pp
0.0000000000000000e+00 3.0000000000000000e+01
0.0000000000000000e+00 3.0000000000000000e+01
0.0000000000000000e+00 3.0000000000000000e+01
ITEM: ATOMS id type element x y z
1 1 O 0 0 0
2 2 H 0.81649 0 0.577359
4 1 O 0 0 3.5
25 1 O 0 3.5 0
26 2 H 0.81649 3.5 0.577359
28 1 O 0 3.5 3.5
193 1 O 3.5 0 0
195 2 H 2.68351 0 0.577359
196 1 O 3.5 0 3.5
217 1 O 3.5 3.5 0
219 2 H 2.68351 3.5 0.577359
220 1 O 3.5 3.5 3.5
194 2 H 4.31649 0 0.577359
218 2 H 4.31649 3.5 0.577359
385 1 O 7 0 0
387 2 H 6.18351 0 0.577359
388 1 O 7 0 3.5
409 1 O 7 3.5 0
411 2 H 6.18351 3.5 0.577359
412 1 O 7 3.5 3.5
386 2 H 7.81649 0 0.577359
410 2 H 7.81649 3.5 0.577359
577 1 O 10.5 0 0
579 2 H 9.68351 0 0.577359
580 1 O 10.5 0 3.5
601 1 O 10.5 3.5 0
603 2 H 9.68351 3.5 0.577359
604 1 O 10.5 3.5 3.5
578 2 H 11.3165 0 0.577359
602 2 H 11.3165 3.5 0.577359
769 1 O 14 0 0
770 2 H 14.8165 0 0.577359
771 2 H 13.1835 0 0.577359
772 1 O 14 0 3.5
793 1 O 14 3.5 0
794 2 H 14.8165 3.5 0.577359
795 2 H 13.1835 3.5 0.577359
796 1 O 14 3.5 3.5
49 1 O 0 7 0
50 2 H 0.81649 7 0.577359
52 1 O 0 7 3.5
241 1 O 3.5 7 0
243 2 H 2.68351 7 0.577359
244 1 O 3.5 7 3.5
242 2 H 4.31649 7 0.577359
433 1 O 7 7 0
435 2 H 6.18351 7 0.577359
436 1 O 7 7 3.5
434 2 H 7.81649 7 0.577359
625 1 O 10.5 7 0
627 2 H 9.68351 7 0.577359
628 1 O 10.5 7 3.5
626 2 H 11.3165 7 0.577359
817 1 O 14 7 0
818 2 H 14.8165 7 0.577359
819 2 H 13.1835 7 0.577359
820 1 O 14 7 3.5
73 1 O 0 10.5 0
74 2 H 0.81649 10.5 0.577359
76 1 O 0 10.5 3.5
265 1 O 3.5 10.5 0
267 2 H 2.68351 10.5 0.577359
268 1 O 3.5 10.5 3.5
266 2 H 4.31649 10.5 0.577359
457 1 O 7 10.5 0
459 2 H 6.18351 10.5 0.577359
460 1 O 7 10.5 3.5
458 2 H 7.81649 10.5 0.577359
649 1 O 10.5 10.5 0
651 2 H 9.68351 10.5 0.577359
652 1 O 10.5 10.5 3.5
650 2 H 11.3165 10.5 0.577359
841 1 O 14 10.5 0
842 2 H 14.8165 10.5 0.577359
843 2 H 13.1835 10.5 0.577359
844 1 O 14 10.5 3.5
97 1 O 0 14 0
98 2 H 0.81649 14 0.577359
100 1 O 0 14 3.5
289 1 O 3.5 14 0
291 2 H 2.68351 14 0.577359
292 1 O 3.5 14 3.5
290 2 H 4.31649 14 0.577359
481 1 O 7 14 0
483 2 H 6.18351 14 0.577359
484 1 O 7 14 3.5
482 2 H 7.81649 14 0.577359
673 1 O 10.5 14 0
675 2 H 9.68351 14 0.577359
676 1 O 10.5 14 3.5
674 2 H 11.3165 14 0.577359
865 1 O 14 14 0
866 2 H 14.8165 14 0.577359
867 2 H 13.1835 14 0.577359
868 1 O 14 14 3.5
5 2 H 0.81649 0 4.07736
7 1 O 0 0 7
29 2 H 0.81649 3.5 4.07736
31 1 O 0 3.5 7
198 2 H 2.68351 0 4.07736
199 1 O 3.5 0 7
222 2 H 2.68351 3.5 4.07736
223 1 O 3.5 3.5 7
197 2 H 4.31649 0 4.07736
221 2 H 4.31649 3.5 4.07736
390 2 H 6.18351 0 4.07736
391 1 O 7 0 7
414 2 H 6.18351 3.5 4.07736
415 1 O 7 3.5 7
389 2 H 7.81649 0 4.07736
413 2 H 7.81649 3.5 4.07736
582 2 H 9.68351 0 4.07736
583 1 O 10.5 0 7
606 2 H 9.68351 3.5 4.07736
607 1 O 10.5 3.5 7
581 2 H 11.3165 0 4.07736
605 2 H 11.3165 3.5 4.07736
773 2 H 14.8165 0 4.07736
774 2 H 13.1835 0 4.07736
775 1 O 14 0 7
797 2 H 14.8165 3.5 4.07736
798 2 H 13.1835 3.5 4.07736
799 1 O 14 3.5 7
53 2 H 0.81649 7 4.07736
55 1 O 0 7 7
246 2 H 2.68351 7 4.07736
247 1 O 3.5 7 7
245 2 H 4.31649 7 4.07736
438 2 H 6.18351 7 4.07736
439 1 O 7 7 7
437 2 H 7.81649 7 4.07736
630 2 H 9.68351 7 4.07736
631 1 O 10.5 7 7
629 2 H 11.3165 7 4.07736
821 2 H 14.8165 7 4.07736
822 2 H 13.1835 7 4.07736
823 1 O 14 7 7
77 2 H 0.81649 10.5 4.07736
79 1 O 0 10.5 7
270 2 H 2.68351 10.5 4.07736
271 1 O 3.5 10.5 7
269 2 H 4.31649 10.5 4.07736
462 2 H 6.18351 10.5 4.07736
463 1 O 7 10.5 7
461 2 H 7.81649 10.5 4.07736
654 2 H 9.68351 10.5 4.07736
655 1 O 10.5 10.5 7
653 2 H 11.3165 10.5 4.07736
845 2 H 14.8165 10.5 4.07736
846 2 H 13.1835 10.5 4.07736
847 1 O 14 10.5 7
101 2 H 0.81649 14 4.07736
103 1 O 0 14 7
294 2 H 2.68351 14 4.07736
295 1 O 3.5 14 7
293 2 H 4.31649 14 4.07736
486 2 H 6.18351 14 4.07736
487 1 O 7 14 7
485 2 H 7.81649 14 4.07736
678 2 H 9.68351 14 4.07736
679 1 O 10.5 14 7
677 2 H 11.3165 14 4.07736
869 2 H 14.8165 14 4.07736
870 2 H 13.1835 14 4.07736
871 1 O 14 14 7
8 2 H 0.81649 0 7.57736
10 1 O 0 0 10.5
11 2 H 0.81649 0 11.0774
32 2 H 0.81649 3.5 7.57736
34 1 O 0 3.5 10.5
35 2 H 0.81649 3.5 11.0774
201 2 H 2.68351 0 7.57736
202 1 O 3.5 0 10.5
204 2 H 2.68351 0 11.0774
225 2 H 2.68351 3.5 7.57736
226 1 O 3.5 3.5 10.5
228 2 H 2.68351 3.5 11.0774
200 2 H 4.31649 0 7.57736
203 2 H 4.31649 0 11.0774
224 2 H 4.31649 3.5 7.57736
227 2 H 4.31649 3.5 11.0774
393 2 H 6.18351 0 7.57736
394 1 O 7 0 10.5
396 2 H 6.18351 0 11.0774
417 2 H 6.18351 3.5 7.57736
418 1 O 7 3.5 10.5
420 2 H 6.18351 3.5 11.0774
392 2 H 7.81649 0 7.57736
395 2 H 7.81649 0 11.0774
416 2 H 7.81649 3.5 7.57736
419 2 H 7.81649 3.5 11.0774
585 2 H 9.68351 0 7.57736
586 1 O 10.5 0 10.5
588 2 H 9.68351 0 11.0774
609 2 H 9.68351 3.5 7.57736
610 1 O 10.5 3.5 10.5
612 2 H 9.68351 3.5 11.0774
584 2 H 11.3165 0 7.57736
587 2 H 11.3165 0 11.0774
608 2 H 11.3165 3.5 7.57736
611 2 H 11.3165 3.5 11.0774
776 2 H 14.8165 0 7.57736
777 2 H 13.1835 0 7.57736
778 1 O 14 0 10.5
779 2 H 14.8165 0 11.0774
780 2 H 13.1835 0 11.0774
800 2 H 14.8165 3.5 7.57736
801 2 H 13.1835 3.5 7.57736
802 1 O 14 3.5 10.5
803 2 H 14.8165 3.5 11.0774
804 2 H 13.1835 3.5 11.0774
56 2 H 0.81649 7 7.57736
58 1 O 0 7 10.5
59 2 H 0.81649 7 11.0774
249 2 H 2.68351 7 7.57736
250 1 O 3.5 7 10.5
252 2 H 2.68351 7 11.0774
248 2 H 4.31649 7 7.57736
251 2 H 4.31649 7 11.0774
441 2 H 6.18351 7 7.57736
442 1 O 7 7 10.5
444 2 H 6.18351 7 11.0774
440 2 H 7.81649 7 7.57736
443 2 H 7.81649 7 11.0774
633 2 H 9.68351 7 7.57736
634 1 O 10.5 7 10.5
636 2 H 9.68351 7 11.0774
632 2 H 11.3165 7 7.57736
635 2 H 11.3165 7 11.0774
824 2 H 14.8165 7 7.57736
825 2 H 13.1835 7 7.57736
826 1 O 14 7 10.5
827 2 H 14.8165 7 11.0774
828 2 H 13.1835 7 11.0774
80 2 H 0.81649 10.5 7.57736
82 1 O 0 10.5 10.5
83 2 H 0.81649 10.5 11.0774
273 2 H 2.68351 10.5 7.57736
274 1 O 3.5 10.5 10.5
276 2 H 2.68351 10.5 11.0774
272 2 H 4.31649 10.5 7.57736
275 2 H 4.31649 10.5 11.0774
465 2 H 6.18351 10.5 7.57736
466 1 O 7 10.5 10.5
468 2 H 6.18351 10.5 11.0774
464 2 H 7.81649 10.5 7.57736
467 2 H 7.81649 10.5 11.0774
657 2 H 9.68351 10.5 7.57736
658 1 O 10.5 10.5 10.5
660 2 H 9.68351 10.5 11.0774
656 2 H 11.3165 10.5 7.57736
659 2 H 11.3165 10.5 11.0774
848 2 H 14.8165 10.5 7.57736
849 2 H 13.1835 10.5 7.57736
850 1 O 14 10.5 10.5
851 2 H 14.8165 10.5 11.0774
852 2 H 13.1835 10.5 11.0774
104 2 H 0.81649 14 7.57736
106 1 O 0 14 10.5
107 2 H 0.81649 14 11.0774
297 2 H 2.68351 14 7.57736
298 1 O 3.5 14 10.5
300 2 H 2.68351 14 11.0774
296 2 H 4.31649 14 7.57736
299 2 H 4.31649 14 11.0774
489 2 H 6.18351 14 7.57736
490 1 O 7 14 10.5
492 2 H 6.18351 14 11.0774
488 2 H 7.81649 14 7.57736
491 2 H 7.81649 14 11.0774
681 2 H 9.68351 14 7.57736
682 1 O 10.5 14 10.5
684 2 H 9.68351 14 11.0774
680 2 H 11.3165 14 7.57736
683 2 H 11.3165 14 11.0774
872 2 H 14.8165 14 7.57736
873 2 H 13.1835 14 7.57736
874 1 O 14 14 10.5
875 2 H 14.8165 14 11.0774
876 2 H 13.1835 14 11.0774
13 1 O 0 0 14
14 2 H 0.81649 0 14.5774
37 1 O 0 3.5 14
38 2 H 0.81649 3.5 14.5774
205 1 O 3.5 0 14
207 2 H 2.68351 0 14.5774
229 1 O 3.5 3.5 14
231 2 H 2.68351 3.5 14.5774
206 2 H 4.31649 0 14.5774
230 2 H 4.31649 3.5 14.5774
397 1 O 7 0 14
399 2 H 6.18351 0 14.5774
421 1 O 7 3.5 14
423 2 H 6.18351 3.5 14.5774
398 2 H 7.81649 0 14.5774
422 2 H 7.81649 3.5 14.5774
589 1 O 10.5 0 14
591 2 H 9.68351 0 14.5774
613 1 O 10.5 3.5 14
615 2 H 9.68351 3.5 14.5774
590 2 H 11.3165 0 14.5774
614 2 H 11.3165 3.5 14.5774
781 1 O 14 0 14
782 2 H 14.8165 0 14.5774
783 2 H 13.1835 0 14.5774
805 1 O 14 3.5 14
806 2 H 14.8165 3.5 14.5774
807 2 H 13.1835 3.5 14.5774
61 1 O 0 7 14
62 2 H 0.81649 7 14.5774
253 1 O 3.5 7 14
255 2 H 2.68351 7 14.5774
254 2 H 4.31649 7 14.5774
445 1 O 7 7 14
447 2 H 6.18351 7 14.5774
446 2 H 7.81649 7 14.5774
637 1 O 10.5 7 14
639 2 H 9.68351 7 14.5774
638 2 H 11.3165 7 14.5774
829 1 O 14 7 14
830 2 H 14.8165 7 14.5774
831 2 H 13.1835 7 14.5774
85 1 O 0 10.5 14
86 2 H 0.81649 10.5 14.5774
277 1 O 3.5 10.5 14
279 2 H 2.68351 10.5 14.5774
278 2 H 4.31649 10.5 14.5774
469 1 O 7 10.5 14
471 2 H 6.18351 10.5 14.5774
470 2 H 7.81649 10.5 14.5774
661 1 O 10.5 10.5 14
663 2 H 9.68351 10.5 14.5774
662 2 H 11.3165 10.5 14.5774
853 1 O 14 10.5 14
854 2 H 14.8165 10.5 14.5774
855 2 H 13.1835 10.5 14.5774
109 1 O 0 14 14
110 2 H 0.81649 14 14.5774
301 1 O 3.5 14 14
303 2 H 2.68351 14 14.5774
302 2 H 4.31649 14 14.5774
493 1 O 7 14 14
495 2 H 6.18351 14 14.5774
494 2 H 7.81649 14 14.5774
685 1 O 10.5 14 14
687 2 H 9.68351 14 14.5774
686 2 H 11.3165 14 14.5774
877 1 O 14 14 14
878 2 H 14.8165 14 14.5774
879 2 H 13.1835 14 14.5774
16 1 O 0 0 17.5
17 2 H 0.81649 0 18.0774
40 1 O 0 3.5 17.5
41 2 H 0.81649 3.5 18.0774
208 1 O 3.5 0 17.5
210 2 H 2.68351 0 18.0774
232 1 O 3.5 3.5 17.5
234 2 H 2.68351 3.5 18.0774
209 2 H 4.31649 0 18.0774
233 2 H 4.31649 3.5 18.0774
400 1 O 7 0 17.5
402 2 H 6.18351 0 18.0774
424 1 O 7 3.5 17.5
426 2 H 6.18351 3.5 18.0774
401 2 H 7.81649 0 18.0774
425 2 H 7.81649 3.5 18.0774
592 1 O 10.5 0 17.5
594 2 H 9.68351 0 18.0774
616 1 O 10.5 3.5 17.5
618 2 H 9.68351 3.5 18.0774
593 2 H 11.3165 0 18.0774
617 2 H 11.3165 3.5 18.0774
784 1 O 14 0 17.5
785 2 H 14.8165 0 18.0774
786 2 H 13.1835 0 18.0774
808 1 O 14 3.5 17.5
809 2 H 14.8165 3.5 18.0774
810 2 H 13.1835 3.5 18.0774
64 1 O 0 7 17.5
65 2 H 0.81649 7 18.0774
256 1 O 3.5 7 17.5
258 2 H 2.68351 7 18.0774
257 2 H 4.31649 7 18.0774
448 1 O 7 7 17.5
450 2 H 6.18351 7 18.0774
449 2 H 7.81649 7 18.0774
640 1 O 10.5 7 17.5
642 2 H 9.68351 7 18.0774
641 2 H 11.3165 7 18.0774
832 1 O 14 7 17.5
833 2 H 14.8165 7 18.0774
834 2 H 13.1835 7 18.0774
88 1 O 0 10.5 17.5
89 2 H 0.81649 10.5 18.0774
280 1 O 3.5 10.5 17.5
282 2 H 2.68351 10.5 18.0774
281 2 H 4.31649 10.5 18.0774
472 1 O 7 10.5 17.5
474 2 H 6.18351 10.5 18.0774
473 2 H 7.81649 10.5 18.0774
664 1 O 10.5 10.5 17.5
666 2 H 9.68351 10.5 18.0774
665 2 H 11.3165 10.5 18.0774
856 1 O 14 10.5 17.5
857 2 H 14.8165 10.5 18.0774
858 2 H 13.1835 10.5 18.0774
112 1 O 0 14 17.5
113 2 H 0.81649 14 18.0774
304 1 O 3.5 14 17.5
306 2 H 2.68351 14 18.0774
305 2 H 4.31649 14 18.0774
496 1 O 7 14 17.5
498 2 H 6.18351 14 18.0774
497 2 H 7.81649 14 18.0774
688 1 O 10.5 14 17.5
690 2 H 9.68351 14 18.0774
689 2 H 11.3165 14 18.0774
880 1 O 14 14 17.5
881 2 H 14.8165 14 18.0774
882 2 H 13.1835 14 18.0774
19 1 O 0 0 21
20 2 H 0.81649 0 21.5774
43 1 O 0 3.5 21
44 2 H 0.81649 3.5 21.5774
211 1 O 3.5 0 21
213 2 H 2.68351 0 21.5774
235 1 O 3.5 3.5 21
237 2 H 2.68351 3.5 21.5774
212 2 H 4.31649 0 21.5774
236 2 H 4.31649 3.5 21.5774
403 1 O 7 0 21
405 2 H 6.18351 0 21.5774
427 1 O 7 3.5 21
429 2 H 6.18351 3.5 21.5774
404 2 H 7.81649 0 21.5774
428 2 H 7.81649 3.5 21.5774
595 1 O 10.5 0 21
597 2 H 9.68351 0 21.5774
619 1 O 10.5 3.5 21
621 2 H 9.68351 3.5 21.5774
596 2 H 11.3165 0 21.5774
620 2 H 11.3165 3.5 21.5774
787 1 O 14 0 21
788 2 H 14.8165 0 21.5774
789 2 H 13.1835 0 21.5774
811 1 O 14 3.5 21
812 2 H 14.8165 3.5 21.5774
813 2 H 13.1835 3.5 21.5774
67 1 O 0 7 21
68 2 H 0.81649 7 21.5774
259 1 O 3.5 7 21
261 2 H 2.68351 7 21.5774
260 2 H 4.31649 7 21.5774
451 1 O 7 7 21
453 2 H 6.18351 7 21.5774
452 2 H 7.81649 7 21.5774
643 1 O 10.5 7 21
645 2 H 9.68351 7 21.5774
644 2 H 11.3165 7 21.5774
835 1 O 14 7 21
836 2 H 14.8165 7 21.5774
837 2 H 13.1835 7 21.5774
91 1 O 0 10.5 21
92 2 H 0.81649 10.5 21.5774
283 1 O 3.5 10.5 21
285 2 H 2.68351 10.5 21.5774
284 2 H 4.31649 10.5 21.5774
475 1 O 7 10.5 21
477 2 H 6.18351 10.5 21.5774
476 2 H 7.81649 10.5 21.5774
667 1 O 10.5 10.5 21
669 2 H 9.68351 10.5 21.5774
668 2 H 11.3165 10.5 21.5774
859 1 O 14 10.5 21
860 2 H 14.8165 10.5 21.5774
861 2 H 13.1835 10.5 21.5774
115 1 O 0 14 21
116 2 H 0.81649 14 21.5774
307 1 O 3.5 14 21
309 2 H 2.68351 14 21.5774
308 2 H 4.31649 14 21.5774
499 1 O 7 14 21
501 2 H 6.18351 14 21.5774
500 2 H 7.81649 14 21.5774
691 1 O 10.5 14 21
693 2 H 9.68351 14 21.5774
692 2 H 11.3165 14 21.5774
883 1 O 14 14 21
884 2 H 14.8165 14 21.5774
885 2 H 13.1835 14 21.5774
22 1 O 0 0 24.5
23 2 H 0.81649 0 25.0774
46 1 O 0 3.5 24.5
47 2 H 0.81649 3.5 25.0774
214 1 O 3.5 0 24.5
216 2 H 2.68351 0 25.0774
238 1 O 3.5 3.5 24.5
240 2 H 2.68351 3.5 25.0774
215 2 H 4.31649 0 25.0774
239 2 H 4.31649 3.5 25.0774
406 1 O 7 0 24.5
408 2 H 6.18351 0 25.0774
430 1 O 7 3.5 24.5
432 2 H 6.18351 3.5 25.0774
407 2 H 7.81649 0 25.0774
431 2 H 7.81649 3.5 25.0774
598 1 O 10.5 0 24.5
600 2 H 9.68351 0 25.0774
622 1 O 10.5 3.5 24.5
624 2 H 9.68351 3.5 25.0774
599 2 H 11.3165 0 25.0774
623 2 H 11.3165 3.5 25.0774
790 1 O 14 0 24.5
791 2 H 14.8165 0 25.0774
792 2 H 13.1835 0 25.0774
814 1 O 14 3.5 24.5
815 2 H 14.8165 3.5 25.0774
816 2 H 13.1835 3.5 25.0774
70 1 O 0 7 24.5
71 2 H 0.81649 7 25.0774
262 1 O 3.5 7 24.5
264 2 H 2.68351 7 25.0774
263 2 H 4.31649 7 25.0774
454 1 O 7 7 24.5
456 2 H 6.18351 7 25.0774
455 2 H 7.81649 7 25.0774
646 1 O 10.5 7 24.5
648 2 H 9.68351 7 25.0774
647 2 H 11.3165 7 25.0774
838 1 O 14 7 24.5
839 2 H 14.8165 7 25.0774
840 2 H 13.1835 7 25.0774
94 1 O 0 10.5 24.5
95 2 H 0.81649 10.5 25.0774
286 1 O 3.5 10.5 24.5
288 2 H 2.68351 10.5 25.0774
287 2 H 4.31649 10.5 25.0774
478 1 O 7 10.5 24.5
480 2 H 6.18351 10.5 25.0774
479 2 H 7.81649 10.5 25.0774
670 1 O 10.5 10.5 24.5
672 2 H 9.68351 10.5 25.0774
671 2 H 11.3165 10.5 25.0774
862 1 O 14 10.5 24.5
863 2 H 14.8165 10.5 25.0774
864 2 H 13.1835 10.5 25.0774
118 1 O 0 14 24.5
119 2 H 0.81649 14 25.0774
310 1 O 3.5 14 24.5
312 2 H 2.68351 14 25.0774
311 2 H 4.31649 14 25.0774
502 1 O 7 14 24.5
504 2 H 6.18351 14 25.0774
503 2 H 7.81649 14 25.0774
694 1 O 10.5 14 24.5
696 2 H 9.68351 14 25.0774
695 2 H 11.3165 14 25.0774
886 1 O 14 14 24.5
887 2 H 14.8165 14 25.0774
888 2 H 13.1835 14 25.0774
121 1 O 0 17.5 0
122 2 H 0.81649 17.5 0.577359
124 1 O 0 17.5 3.5
313 1 O 3.5 17.5 0
315 2 H 2.68351 17.5 0.577359
316 1 O 3.5 17.5 3.5
314 2 H 4.31649 17.5 0.577359
505 1 O 7 17.5 0
507 2 H 6.18351 17.5 0.577359
508 1 O 7 17.5 3.5
506 2 H 7.81649 17.5 0.577359
697 1 O 10.5 17.5 0
699 2 H 9.68351 17.5 0.577359
700 1 O 10.5 17.5 3.5
698 2 H 11.3165 17.5 0.577359
889 1 O 14 17.5 0
890 2 H 14.8165 17.5 0.577359
891 2 H 13.1835 17.5 0.577359
892 1 O 14 17.5 3.5
145 1 O 0 21 0
146 2 H 0.81649 21 0.577359
148 1 O 0 21 3.5
337 1 O 3.5 21 0
339 2 H 2.68351 21 0.577359
340 1 O 3.5 21 3.5
338 2 H 4.31649 21 0.577359
529 1 O 7 21 0
531 2 H 6.18351 21 0.577359
532 1 O 7 21 3.5
530 2 H 7.81649 21 0.577359
721 1 O 10.5 21 0
723 2 H 9.68351 21 0.577359
724 1 O 10.5 21 3.5
722 2 H 11.3165 21 0.577359
913 1 O 14 21 0
914 2 H 14.8165 21 0.577359
915 2 H 13.1835 21 0.577359
916 1 O 14 21 3.5
169 1 O 0 24.5 0
170 2 H 0.81649 24.5 0.577359
172 1 O 0 24.5 3.5
361 1 O 3.5 24.5 0
363 2 H 2.68351 24.5 0.577359
364 1 O 3.5 24.5 3.5
362 2 H 4.31649 24.5 0.577359
553 1 O 7 24.5 0
555 2 H 6.18351 24.5 0.577359
556 1 O 7 24.5 3.5
554 2 H 7.81649 24.5 0.577359
745 1 O 10.5 24.5 0
747 2 H 9.68351 24.5 0.577359
748 1 O 10.5 24.5 3.5
746 2 H 11.3165 24.5 0.577359
937 1 O 14 24.5 0
938 2 H 14.8165 24.5 0.577359
939 2 H 13.1835 24.5 0.577359
940 1 O 14 24.5 3.5
125 2 H 0.81649 17.5 4.07736
127 1 O 0 17.5 7
318 2 H 2.68351 17.5 4.07736
319 1 O 3.5 17.5 7
317 2 H 4.31649 17.5 4.07736
510 2 H 6.18351 17.5 4.07736
511 1 O 7 17.5 7
509 2 H 7.81649 17.5 4.07736
702 2 H 9.68351 17.5 4.07736
703 1 O 10.5 17.5 7
701 2 H 11.3165 17.5 4.07736
893 2 H 14.8165 17.5 4.07736
894 2 H 13.1835 17.5 4.07736
895 1 O 14 17.5 7
149 2 H 0.81649 21 4.07736
151 1 O 0 21 7
342 2 H 2.68351 21 4.07736
343 1 O 3.5 21 7
341 2 H 4.31649 21 4.07736
534 2 H 6.18351 21 4.07736
535 1 O 7 21 7
533 2 H 7.81649 21 4.07736
726 2 H 9.68351 21 4.07736
727 1 O 10.5 21 7
725 2 H 11.3165 21 4.07736
917 2 H 14.8165 21 4.07736
918 2 H 13.1835 21 4.07736
919 1 O 14 21 7
173 2 H 0.81649 24.5 4.07736
175 1 O 0 24.5 7
366 2 H 2.68351 24.5 4.07736
367 1 O 3.5 24.5 7
365 2 H 4.31649 24.5 4.07736
558 2 H 6.18351 24.5 4.07736
559 1 O 7 24.5 7
557 2 H 7.81649 24.5 4.07736
750 2 H 9.68351 24.5 4.07736
751 1 O 10.5 24.5 7
749 2 H 11.3165 24.5 4.07736
941 2 H 14.8165 24.5 4.07736
942 2 H 13.1835 24.5 4.07736
943 1 O 14 24.5 7
128 2 H 0.81649 17.5 7.57736
130 1 O 0 17.5 10.5
131 2 H 0.81649 17.5 11.0774
321 2 H 2.68351 17.5 7.57736
322 1 O 3.5 17.5 10.5
324 2 H 2.68351 17.5 11.0774
320 2 H 4.31649 17.5 7.57736
323 2 H 4.31649 17.5 11.0774
513 2 H 6.18351 17.5 7.57736
514 1 O 7 17.5 10.5
516 2 H 6.18351 17.5 11.0774
512 2 H 7.81649 17.5 7.57736
515 2 H 7.81649 17.5 11.0774
705 2 H 9.68351 17.5 7.57736
706 1 O 10.5 17.5 10.5
708 2 H 9.68351 17.5 11.0774
704 2 H 11.3165 17.5 7.57736
707 2 H 11.3165 17.5 11.0774
896 2 H 14.8165 17.5 7.57736
897 2 H 13.1835 17.5 7.57736
898 1 O 14 17.5 10.5
899 2 H 14.8165 17.5 11.0774
900 2 H 13.1835 17.5 11.0774
152 2 H 0.81649 21 7.57736
154 1 O 0 21 10.5
155 2 H 0.81649 21 11.0774
345 2 H 2.68351 21 7.57736
346 1 O 3.5 21 10.5
348 2 H 2.68351 21 11.0774
344 2 H 4.31649 21 7.57736
347 2 H 4.31649 21 11.0774
537 2 H 6.18351 21 7.57736
538 1 O 7 21 10.5
540 2 H 6.18351 21 11.0774
536 2 H 7.81649 21 7.57736
539 2 H 7.81649 21 11.0774
729 2 H 9.68351 21 7.57736
730 1 O 10.5 21 10.5
732 2 H 9.68351 21 11.0774
728 2 H 11.3165 21 7.57736
731 2 H 11.3165 21 11.0774
920 2 H 14.8165 21 7.57736
921 2 H 13.1835 21 7.57736
922 1 O 14 21 10.5
923 2 H 14.8165 21 11.0774
924 2 H 13.1835 21 11.0774
176 2 H 0.81649 24.5 7.57736
178 1 O 0 24.5 10.5
179 2 H 0.81649 24.5 11.0774
369 2 H 2.68351 24.5 7.57736
370 1 O 3.5 24.5 10.5
372 2 H 2.68351 24.5 11.0774
368 2 H 4.31649 24.5 7.57736
371 2 H 4.31649 24.5 11.0774
561 2 H 6.18351 24.5 7.57736
562 1 O 7 24.5 10.5
564 2 H 6.18351 24.5 11.0774
560 2 H 7.81649 24.5 7.57736
563 2 H 7.81649 24.5 11.0774
753 2 H 9.68351 24.5 7.57736
754 1 O 10.5 24.5 10.5
756 2 H 9.68351 24.5 11.0774
752 2 H 11.3165 24.5 7.57736
755 2 H 11.3165 24.5 11.0774
944 2 H 14.8165 24.5 7.57736
945 2 H 13.1835 24.5 7.57736
946 1 O 14 24.5 10.5
947 2 H 14.8165 24.5 11.0774
948 2 H 13.1835 24.5 11.0774
133 1 O 0 17.5 14
134 2 H 0.81649 17.5 14.5774
325 1 O 3.5 17.5 14
327 2 H 2.68351 17.5 14.5774
326 2 H 4.31649 17.5 14.5774
517 1 O 7 17.5 14
519 2 H 6.18351 17.5 14.5774
518 2 H 7.81649 17.5 14.5774
709 1 O 10.5 17.5 14
711 2 H 9.68351 17.5 14.5774
710 2 H 11.3165 17.5 14.5774
901 1 O 14 17.5 14
902 2 H 14.8165 17.5 14.5774
903 2 H 13.1835 17.5 14.5774
157 1 O 0 21 14
158 2 H 0.81649 21 14.5774
349 1 O 3.5 21 14
351 2 H 2.68351 21 14.5774
350 2 H 4.31649 21 14.5774
541 1 O 7 21 14
543 2 H 6.18351 21 14.5774
542 2 H 7.81649 21 14.5774
733 1 O 10.5 21 14
735 2 H 9.68351 21 14.5774
734 2 H 11.3165 21 14.5774
925 1 O 14 21 14
926 2 H 14.8165 21 14.5774
927 2 H 13.1835 21 14.5774
181 1 O 0 24.5 14
182 2 H 0.81649 24.5 14.5774
373 1 O 3.5 24.5 14
375 2 H 2.68351 24.5 14.5774
374 2 H 4.31649 24.5 14.5774
565 1 O 7 24.5 14
567 2 H 6.18351 24.5 14.5774
566 2 H 7.81649 24.5 14.5774
757 1 O 10.5 24.5 14
759 2 H 9.68351 24.5 14.5774
758 2 H 11.3165 24.5 14.5774
949 1 O 14 24.5 14
950 2 H 14.8165 24.5 14.5774
951 2 H 13.1835 24.5 14.5774
136 1 O 0 17.5 17.5
137 2 H 0.81649 17.5 18.0774
328 1 O 3.5 17.5 17.5
330 2 H 2.68351 17.5 18.0774
329 2 H 4.31649 17.5 18.0774
520 1 O 7 17.5 17.5
522 2 H 6.18351 17.5 18.0774
521 2 H 7.81649 17.5 18.0774
712 1 O 10.5 17.5 17.5
714 2 H 9.68351 17.5 18.0774
713 2 H 11.3165 17.5 18.0774
904 1 O 14 17.5 17.5
905 2 H 14.8165 17.5 18.0774
906 2 H 13.1835 17.5 18.0774
160 1 O 0 21 17.5
161 2 H 0.81649 21 18.0774
352 1 O 3.5 21 17.5
354 2 H 2.68351 21 18.0774
353 2 H 4.31649 21 18.0774
544 1 O 7 21 17.5
546 2 H 6.18351 21 18.0774
545 2 H 7.81649 21 18.0774
736 1 O 10.5 21 17.5
738 2 H 9.68351 21 18.0774
737 2 H 11.3165 21 18.0774
928 1 O 14 21 17.5
929 2 H 14.8165 21 18.0774
930 2 H 13.1835 21 18.0774
184 1 O 0 24.5 17.5
185 2 H 0.81649 24.5 18.0774
376 1 O 3.5 24.5 17.5
378 2 H 2.68351 24.5 18.0774
377 2 H 4.31649 24.5 18.0774
568 1 O 7 24.5 17.5
570 2 H 6.18351 24.5 18.0774
569 2 H 7.81649 24.5 18.0774
760 1 O 10.5 24.5 17.5
762 2 H 9.68351 24.5 18.0774
761 2 H 11.3165 24.5 18.0774
952 1 O 14 24.5 17.5
953 2 H 14.8165 24.5 18.0774
954 2 H 13.1835 24.5 18.0774
139 1 O 0 17.5 21
140 2 H 0.81649 17.5 21.5774
331 1 O 3.5 17.5 21
333 2 H 2.68351 17.5 21.5774
332 2 H 4.31649 17.5 21.5774
523 1 O 7 17.5 21
525 2 H 6.18351 17.5 21.5774
524 2 H 7.81649 17.5 21.5774
715 1 O 10.5 17.5 21
717 2 H 9.68351 17.5 21.5774
716 2 H 11.3165 17.5 21.5774
907 1 O 14 17.5 21
908 2 H 14.8165 17.5 21.5774
909 2 H 13.1835 17.5 21.5774
163 1 O 0 21 21
164 2 H 0.81649 21 21.5774
355 1 O 3.5 21 21
357 2 H 2.68351 21 21.5774
356 2 H 4.31649 21 21.5774
547 1 O 7 21 21
549 2 H 6.18351 21 21.5774
548 2 H 7.81649 21 21.5774
739 1 O 10.5 21 21
741 2 H 9.68351 21 21.5774
740 2 H 11.3165 21 21.5774
931 1 O 14 21 21
932 2 H 14.8165 21 21.5774
933 2 H 13.1835 21 21.5774
187 1 O 0 24.5 21
188 2 H 0.81649 24.5 21.5774
379 1 O 3.5 24.5 21
381 2 H 2.68351 24.5 21.5774
380 2 H 4.31649 24.5 21.5774
571 1 O 7 24.5 21
573 2 H 6.18351 24.5 21.5774
572 2 H 7.81649 24.5 21.5774
763 1 O 10.5 24.5 21
765 2 H 9.68351 24.5 21.5774
764 2 H 11.3165 24.5 21.5774
955 1 O 14 24.5 21
956 2 H 14.8165 24.5 21.5774
957 2 H 13.1835 24.5 21.5774
142 1 O 0 17.5 24.5
143 2 H 0.81649 17.5 25.0774
334 1 O 3.5 17.5 24.5
336 2 H 2.68351 17.5 25.0774
335 2 H 4.31649 17.5 25.0774
526 1 O 7 17.5 24.5
528 2 H 6.18351 17.5 25.0774
527 2 H 7.81649 17.5 25.0774
718 1 O 10.5 17.5 24.5
720 2 H 9.68351 17.5 25.0774
719 2 H 11.3165 17.5 25.0774
910 1 O 14 17.5 24.5
911 2 H 14.8165 17.5 25.0774
912 2 H 13.1835 17.5 25.0774
166 1 O 0 21 24.5
167 2 H 0.81649 21 25.0774
358 1 O 3.5 21 24.5
360 2 H 2.68351 21 25.0774
359 2 H 4.31649 21 25.0774
550 1 O 7 21 24.5
552 2 H 6.18351 21 25.0774
551 2 H 7.81649 21 25.0774
742 1 O 10.5 21 24.5
744 2 H 9.68351 21 25.0774
743 2 H 11.3165 21 25.0774
934 1 O 14 21 24.5
935 2 H 14.8165 21 25.0774
936 2 H 13.1835 21 25.0774
190 1 O 0 24.5 24.5
191 2 H 0.81649 24.5 25.0774
382 1 O 3.5 24.5 24.5
384 2 H 2.68351 24.5 25.0774
383 2 H 4.31649 24.5 25.0774
574 1 O 7 24.5 24.5
576 2 H 6.18351 24.5 25.0774
575 2 H 7.81649 24.5 25.0774
766 1 O 10.5 24.5 24.5
768 2 H 9.68351 24.5 25.0774
767 2 H 11.3165 24.5 25.0774
958 1 O 14 24.5 24.5
959 2 H 14.8165 24.5 25.0774
960 2 H 13.1835 24.5 25.0774
961 1 O 17.5 0 0
962 2 H 18.3165 0 0.577359
963 2 H 16.6835 0 0.577359
964 1 O 17.5 0 3.5
985 1 O 17.5 3.5 0
986 2 H 18.3165 3.5 0.577359
987 2 H 16.6835 3.5 0.577359
988 1 O 17.5 3.5 3.5
1153 1 O 21 0 0
1154 2 H 21.8165 0 0.577359
1155 2 H 20.1835 0 0.577359
1156 1 O 21 0 3.5
1177 1 O 21 3.5 0
1178 2 H 21.8165 3.5 0.577359
1179 2 H 20.1835 3.5 0.577359
1180 1 O 21 3.5 3.5
1345 1 O 24.5 0 0
1346 2 H 25.3165 0 0.577359
1347 2 H 23.6835 0 0.577359
1348 1 O 24.5 0 3.5
1369 1 O 24.5 3.5 0
1370 2 H 25.3165 3.5 0.577359
1371 2 H 23.6835 3.5 0.577359
1372 1 O 24.5 3.5 3.5
3 2 H 29.1835 0 0.577359
27 2 H 29.1835 3.5 0.577359
1009 1 O 17.5 7 0
1010 2 H 18.3165 7 0.577359
1011 2 H 16.6835 7 0.577359
1012 1 O 17.5 7 3.5
1201 1 O 21 7 0
1202 2 H 21.8165 7 0.577359
1203 2 H 20.1835 7 0.577359
1204 1 O 21 7 3.5
1393 1 O 24.5 7 0
1394 2 H 25.3165 7 0.577359
1395 2 H 23.6835 7 0.577359
1396 1 O 24.5 7 3.5
51 2 H 29.1835 7 0.577359
1033 1 O 17.5 10.5 0
1034 2 H 18.3165 10.5 0.577359
1035 2 H 16.6835 10.5 0.577359
1036 1 O 17.5 10.5 3.5
1225 1 O 21 10.5 0
1226 2 H 21.8165 10.5 0.577359
1227 2 H 20.1835 10.5 0.577359
1228 1 O 21 10.5 3.5
1417 1 O 24.5 10.5 0
1418 2 H 25.3165 10.5 0.577359
1419 2 H 23.6835 10.5 0.577359
1420 1 O 24.5 10.5 3.5
75 2 H 29.1835 10.5 0.577359
1057 1 O 17.5 14 0
1058 2 H 18.3165 14 0.577359
1059 2 H 16.6835 14 0.577359
1060 1 O 17.5 14 3.5
1249 1 O 21 14 0
1250 2 H 21.8165 14 0.577359
1251 2 H 20.1835 14 0.577359
1252 1 O 21 14 3.5
1441 1 O 24.5 14 0
1442 2 H 25.3165 14 0.577359
1443 2 H 23.6835 14 0.577359
1444 1 O 24.5 14 3.5
99 2 H 29.1835 14 0.577359
965 2 H 18.3165 0 4.07736
966 2 H 16.6835 0 4.07736
967 1 O 17.5 0 7
989 2 H 18.3165 3.5 4.07736
990 2 H 16.6835 3.5 4.07736
991 1 O 17.5 3.5 7
1157 2 H 21.8165 0 4.07736
1158 2 H 20.1835 0 4.07736
1159 1 O 21 0 7
1181 2 H 21.8165 3.5 4.07736
1182 2 H 20.1835 3.5 4.07736
1183 1 O 21 3.5 7
1349 2 H 25.3165 0 4.07736
1350 2 H 23.6835 0 4.07736
1351 1 O 24.5 0 7
1373 2 H 25.3165 3.5 4.07736
1374 2 H 23.6835 3.5 4.07736
1375 1 O 24.5 3.5 7
6 2 H 29.1835 0 4.07736
30 2 H 29.1835 3.5 4.07736
1013 2 H 18.3165 7 4.07736
1014 2 H 16.6835 7 4.07736
1015 1 O 17.5 7 7
1205 2 H 21.8165 7 4.07736
1206 2 H 20.1835 7 4.07736
1207 1 O 21 7 7
1397 2 H 25.3165 7 4.07736
1398 2 H 23.6835 7 4.07736
1399 1 O 24.5 7 7
54 2 H 29.1835 7 4.07736
1037 2 H 18.3165 10.5 4.07736
1038 2 H 16.6835 10.5 4.07736
1039 1 O 17.5 10.5 7
1229 2 H 21.8165 10.5 4.07736
1230 2 H 20.1835 10.5 4.07736
1231 1 O 21 10.5 7
1421 2 H 25.3165 10.5 4.07736
1422 2 H 23.6835 10.5 4.07736
1423 1 O 24.5 10.5 7
78 2 H 29.1835 10.5 4.07736
1061 2 H 18.3165 14 4.07736
1062 2 H 16.6835 14 4.07736
1063 1 O 17.5 14 7
1253 2 H 21.8165 14 4.07736
1254 2 H 20.1835 14 4.07736
1255 1 O 21 14 7
1445 2 H 25.3165 14 4.07736
1446 2 H 23.6835 14 4.07736
1447 1 O 24.5 14 7
102 2 H 29.1835 14 4.07736
968 2 H 18.3165 0 7.57736
969 2 H 16.6835 0 7.57736
970 1 O 17.5 0 10.5
971 2 H 18.3165 0 11.0774
972 2 H 16.6835 0 11.0774
992 2 H 18.3165 3.5 7.57736
993 2 H 16.6835 3.5 7.57736
994 1 O 17.5 3.5 10.5
995 2 H 18.3165 3.5 11.0774
996 2 H 16.6835 3.5 11.0774
1160 2 H 21.8165 0 7.57736
1161 2 H 20.1835 0 7.57736
1162 1 O 21 0 10.5
1163 2 H 21.8165 0 11.0774
1164 2 H 20.1835 0 11.0774
1184 2 H 21.8165 3.5 7.57736
1185 2 H 20.1835 3.5 7.57736
1186 1 O 21 3.5 10.5
1187 2 H 21.8165 3.5 11.0774
1188 2 H 20.1835 3.5 11.0774
1352 2 H 25.3165 0 7.57736
1353 2 H 23.6835 0 7.57736
1354 1 O 24.5 0 10.5
1355 2 H 25.3165 0 11.0774
1356 2 H 23.6835 0 11.0774
1376 2 H 25.3165 3.5 7.57736
1377 2 H 23.6835 3.5 7.57736
1378 1 O 24.5 3.5 10.5
1379 2 H 25.3165 3.5 11.0774
1380 2 H 23.6835 3.5 11.0774
9 2 H 29.1835 0 7.57736
12 2 H 29.1835 0 11.0774
33 2 H 29.1835 3.5 7.57736
36 2 H 29.1835 3.5 11.0774
1016 2 H 18.3165 7 7.57736
1017 2 H 16.6835 7 7.57736
1018 1 O 17.5 7 10.5
1019 2 H 18.3165 7 11.0774
1020 2 H 16.6835 7 11.0774
1208 2 H 21.8165 7 7.57736
1209 2 H 20.1835 7 7.57736
1210 1 O 21 7 10.5
1211 2 H 21.8165 7 11.0774
1212 2 H 20.1835 7 11.0774
1400 2 H 25.3165 7 7.57736
1401 2 H 23.6835 7 7.57736
1402 1 O 24.5 7 10.5
1403 2 H 25.3165 7 11.0774
1404 2 H 23.6835 7 11.0774
57 2 H 29.1835 7 7.57736
60 2 H 29.1835 7 11.0774
1040 2 H 18.3165 10.5 7.57736
1041 2 H 16.6835 10.5 7.57736
1042 1 O 17.5 10.5 10.5
1043 2 H 18.3165 10.5 11.0774
1044 2 H 16.6835 10.5 11.0774
1232 2 H 21.8165 10.5 7.57736
1233 2 H 20.1835 10.5 7.57736
1234 1 O 21 10.5 10.5
1235 2 H 21.8165 10.5 11.0774
1236 2 H 20.1835 10.5 11.0774
1424 2 H 25.3165 10.5 7.57736
1425 2 H 23.6835 10.5 7.57736
1426 1 O 24.5 10.5 10.5
1427 2 H 25.3165 10.5 11.0774
1428 2 H 23.6835 10.5 11.0774
81 2 H 29.1835 10.5 7.57736
84 2 H 29.1835 10.5 11.0774
1064 2 H 18.3165 14 7.57736
1065 2 H 16.6835 14 7.57736
1066 1 O 17.5 14 10.5
1067 2 H 18.3165 14 11.0774
1068 2 H 16.6835 14 11.0774
1256 2 H 21.8165 14 7.57736
1257 2 H 20.1835 14 7.57736
1258 1 O 21 14 10.5
1259 2 H 21.8165 14 11.0774
1260 2 H 20.1835 14 11.0774
1448 2 H 25.3165 14 7.57736
1449 2 H 23.6835 14 7.57736
1450 1 O 24.5 14 10.5
1451 2 H 25.3165 14 11.0774
1452 2 H 23.6835 14 11.0774
105 2 H 29.1835 14 7.57736
108 2 H 29.1835 14 11.0774
973 1 O 17.5 0 14
974 2 H 18.3165 0 14.5774
975 2 H 16.6835 0 14.5774
997 1 O 17.5 3.5 14
998 2 H 18.3165 3.5 14.5774
999 2 H 16.6835 3.5 14.5774
1165 1 O 21 0 14
1166 2 H 21.8165 0 14.5774
1167 2 H 20.1835 0 14.5774
1189 1 O 21 3.5 14
1190 2 H 21.8165 3.5 14.5774
1191 2 H 20.1835 3.5 14.5774
1357 1 O 24.5 0 14
1358 2 H 25.3165 0 14.5774
1359 2 H 23.6835 0 14.5774
1381 1 O 24.5 3.5 14
1382 2 H 25.3165 3.5 14.5774
1383 2 H 23.6835 3.5 14.5774
15 2 H 29.1835 0 14.5774
39 2 H 29.1835 3.5 14.5774
1021 1 O 17.5 7 14
1022 2 H 18.3165 7 14.5774
1023 2 H 16.6835 7 14.5774
1213 1 O 21 7 14
1214 2 H 21.8165 7 14.5774
1215 2 H 20.1835 7 14.5774
1405 1 O 24.5 7 14
1406 2 H 25.3165 7 14.5774
1407 2 H 23.6835 7 14.5774
63 2 H 29.1835 7 14.5774
1045 1 O 17.5 10.5 14
1046 2 H 18.3165 10.5 14.5774
1047 2 H 16.6835 10.5 14.5774
1237 1 O 21 10.5 14
1238 2 H 21.8165 10.5 14.5774
1239 2 H 20.1835 10.5 14.5774
1429 1 O 24.5 10.5 14
1430 2 H 25.3165 10.5 14.5774
1431 2 H 23.6835 10.5 14.5774
87 2 H 29.1835 10.5 14.5774
1069 1 O 17.5 14 14
1070 2 H 18.3165 14 14.5774
1071 2 H 16.6835 14 14.5774
1261 1 O 21 14 14
1262 2 H 21.8165 14 14.5774
1263 2 H 20.1835 14 14.5774
1453 1 O 24.5 14 14
1454 2 H 25.3165 14 14.5774
1455 2 H 23.6835 14 14.5774
111 2 H 29.1835 14 14.5774
976 1 O 17.5 0 17.5
977 2 H 18.3165 0 18.0774
978 2 H 16.6835 0 18.0774
1000 1 O 17.5 3.5 17.5
1001 2 H 18.3165 3.5 18.0774
1002 2 H 16.6835 3.5 18.0774
1168 1 O 21 0 17.5
1169 2 H 21.8165 0 18.0774
1170 2 H 20.1835 0 18.0774
1192 1 O 21 3.5 17.5
1193 2 H 21.8165 3.5 18.0774
1194 2 H 20.1835 3.5 18.0774
1360 1 O 24.5 0 17.5
1361 2 H 25.3165 0 18.0774
1362 2 H 23.6835 0 18.0774
1384 1 O 24.5 3.5 17.5
1385 2 H 25.3165 3.5 18.0774
1386 2 H 23.6835 3.5 18.0774
18 2 H 29.1835 0 18.0774
42 2 H 29.1835 3.5 18.0774
1024 1 O 17.5 7 17.5
1025 2 H 18.3165 7 18.0774
1026 2 H 16.6835 7 18.0774
1216 1 O 21 7 17.5
1217 2 H 21.8165 7 18.0774
1218 2 H 20.1835 7 18.0774
1408 1 O 24.5 7 17.5
1409 2 H 25.3165 7 18.0774
1410 2 H 23.6835 7 18.0774
66 2 H 29.1835 7 18.0774
1048 1 O 17.5 10.5 17.5
1049 2 H 18.3165 10.5 18.0774
1050 2 H 16.6835 10.5 18.0774
1240 1 O 21 10.5 17.5
1241 2 H 21.8165 10.5 18.0774
1242 2 H 20.1835 10.5 18.0774
1432 1 O 24.5 10.5 17.5
1433 2 H 25.3165 10.5 18.0774
1434 2 H 23.6835 10.5 18.0774
90 2 H 29.1835 10.5 18.0774
1072 1 O 17.5 14 17.5
1073 2 H 18.3165 14 18.0774
1074 2 H 16.6835 14 18.0774
1264 1 O 21 14 17.5
1265 2 H 21.8165 14 18.0774
1266 2 H 20.1835 14 18.0774
1456 1 O 24.5 14 17.5
1457 2 H 25.3165 14 18.0774
1458 2 H 23.6835 14 18.0774
114 2 H 29.1835 14 18.0774
979 1 O 17.5 0 21
980 2 H 18.3165 0 21.5774
981 2 H 16.6835 0 21.5774
1003 1 O 17.5 3.5 21
1004 2 H 18.3165 3.5 21.5774
1005 2 H 16.6835 3.5 21.5774
1171 1 O 21 0 21
1172 2 H 21.8165 0 21.5774
1173 2 H 20.1835 0 21.5774
1195 1 O 21 3.5 21
1196 2 H 21.8165 3.5 21.5774