 vasp.5.4.4.18Apr17-6-g9f103f2a35 (build Jul 09 2021 13:05:15) complex          
  
 executed on             LinuxIFC date 2021.11.04  19:03:21
 running on   16 total cores
 distrk:  each k-point on   16 cores,    1 groups
 distr:  one band on NCORES_PER_BAND=   4 cores,    4 groups


--------------------------------------------------------------------------------------------------------


 INCAR:
 POTCAR:    PAW_PBE H 15Jun2001                   
 POTCAR:    PAW_PBE C 08Apr2002                   
 POTCAR:    PAW_PBE H 15Jun2001                   
   VRHFIN =H: ultrasoft test                                                    
   LEXCH  = PE                                                                  
   EATOM  =    12.4884 eV,    0.9179 Ry                                         
                                                                                
   TITEL  = PAW_PBE H 15Jun2001                                                 
   LULTRA =        F    use ultrasoft PP ?                                      
   IUNSCR =        0    unscreen: 0-lin 1-nonlin 2-no                           
   RPACOR =    0.000    partial core radius                                     
   POMASS =    1.000; ZVAL   =    1.000    mass and valenz                      
   RCORE  =    1.100    outmost cutoff radius                                   
   RWIGS  =    0.700; RWIGS  =    0.370    wigner-seitz radius (au A)           
   ENMAX  =  250.000; ENMIN  =  200.000 eV                                      
   RCLOC  =    0.701    cutoff for local pot                                    
   LCOR   =        T    correct aug charges                                     
   LPAW   =        T    paw PP                                                  
   EAUG   =  400.000                                                            
   RMAX   =    1.123    core radius for proj-oper                               
   RAUG   =    1.200    factor for augmentation sphere                          
   RDEP   =    1.112    radius for radial grids                                 
   RDEPT  =    0.926    core radius for aug-charge                              
                                                                                
   Atomic configuration                                                         
    2 entries                                                                   
     n  l   j            E        occ.                                          
     1  0  0.50        -6.4927   1.0000                                         
     2  1  0.50        -3.4015   0.0000                                         
   Description                                                                  
     l       E           TYP  RCUT    TYP  RCUT                                 
     0     -6.4927494     23  1.100                                             
     0      6.8029130     23  1.100                                             
     1     -4.0817478     23  1.100                                             
  local pseudopotential read in
  atomic valenz-charges read in
  non local Contribution for L=           0  read in
    real space projection operators read in
  non local Contribution for L=           0  read in
    real space projection operators read in
  non local Contribution for L=           1  read in
    real space projection operators read in
    PAW grid and wavefunctions read in
 
   number of l-projection  operators is LMAX  =           3
   number of lm-projection operators is LMMAX =           5
 
 POTCAR:    PAW_PBE C 08Apr2002                   
   VRHFIN =C: s2p2                                                              
   LEXCH  = PE                                                                  
   EATOM  =   147.1560 eV,   10.8157 Ry                                         
                                                                                
   TITEL  = PAW_PBE C 08Apr2002                                                 
   LULTRA =        F    use ultrasoft PP ?                                      
   IUNSCR =        1    unscreen: 0-lin 1-nonlin 2-no                           
   RPACOR =    1.200    partial core radius                                     
   POMASS =   12.011; ZVAL   =    4.000    mass and valenz                      
   RCORE  =    1.500    outmost cutoff radius                                   
   RWIGS  =    1.630; RWIGS  =    0.863    wigner-seitz radius (au A)           
   ENMAX  =  400.000; ENMIN  =  300.000 eV                                      
   ICORE  =        2    local potential                                         
   LCOR   =        T    correct aug charges                                     
   LPAW   =        T    paw PP                                                  
   EAUG   =  644.873                                                            
   DEXC   =    0.000                                                            
   RMAX   =    1.529    core radius for proj-oper                               
   RAUG   =    1.300    factor for augmentation sphere                          
   RDEP   =    1.501    radius for radial grids                                 
   RDEPT  =    1.300    core radius for aug-charge                              
                                                                                
   Atomic configuration                                                         
    4 entries                                                                   
     n  l   j            E        occ.                                          
     1  0  0.50      -273.3789   2.0000                                         
     2  0  0.50       -13.7508   2.0000                                         
     2  1  0.50        -5.2854   2.0000                                         
     3  2  1.50        -5.4423   0.0000                                         
   Description                                                                  
     l       E           TYP  RCUT    TYP  RCUT                                 
     0    -13.7508458     23  1.200                                             
     0     -8.2022199     23  1.200                                             
     1     -5.2854383     23  1.500                                             
     1     34.0145650     23  1.500                                             
     2     -5.4423304      7  1.500                                             
  local pseudopotential read in
  partial core-charges read in
  partial kinetic energy density read in
  atomic valenz-charges read in
  non local Contribution for L=           0  read in
    real space projection operators read in
  non local Contribution for L=           0  read in
    real space projection operators read in
  non local Contribution for L=           1  read in
    real space projection operators read in
  non local Contribution for L=           1  read in
    real space projection operators read in
    PAW grid and wavefunctions read in
 
   number of l-projection  operators is LMAX  =           4
   number of lm-projection operators is LMMAX =           8
 
  PAW_PBE H 15Jun2001                   :
 energy of atom  1       EATOM=  -12.4884
 kinetic energy error for atom=    0.0098 (will be added to EATOM!!)
  PAW_PBE C 08Apr2002                   :
 energy of atom  2       EATOM= -147.1560
 kinetic energy error for atom=    0.0288 (will be added to EATOM!!)
 
 
 POSCAR:  H  C                                   
  positions in cartesian coordinates
  No initial velocities read in
 exchange correlation table for  LEXCH =        8
   RHO(1)=    0.500       N(1)  =     2000
   RHO(2)=  100.500       N(2)  =     4000
 


--------------------------------------------------------------------------------------------------------


 ion  position               nearest neighbor table
   1  0.538  0.407  0.360-   5 1.11
   2  0.395  0.480  0.439-   5 1.11
   3  0.552  0.566  0.443-   5 1.10
   4  0.528  0.416  0.539-   5 1.13
   5  0.503  0.467  0.445-   3 1.10   1 1.11   2 1.11   4 1.13
 

IMPORTANT INFORMATION: All symmetrisations will be switched off!
NOSYMM: (Re-)initialisation of all symmetry stuff for point group C_1.

 
 

Automatic generation of k-mesh.
 generate k-points for:    2    2    2
Space group operators:
 irot       det(A)        alpha          n_x          n_y          n_z        tau_x        tau_y        tau_z
    1     1.000000     0.000000     1.000000     0.000000     0.000000     0.000000     0.000000     0.000000
 
 Subroutine IBZKPT returns following result:
 ===========================================
 
 Found      4 irreducible k-points:
 
 Following reciprocal coordinates:
            Coordinates               Weight
  0.250000  0.250000  0.250000      2.000000
 -0.250000  0.250000  0.250000      2.000000
  0.250000 -0.250000  0.250000      2.000000
 -0.250000 -0.250000  0.250000      2.000000
 
 Following cartesian coordinates:
            Coordinates               Weight
  0.024668  0.025229  0.024801      2.000000
 -0.024668  0.024949  0.024550      2.000000
  0.024668 -0.024949  0.024044      2.000000
 -0.024668 -0.025229  0.023793      2.000000
 


--------------------------------------------------------------------------------------------------------




 Dimension of arrays:
   k-points           NKPTS =      4   k-points in BZ     NKDIM =      4   number of bands    NBANDS=      8
   number of dos      NEDOS =    301   number of ions     NIONS =      5
   non local maximal  LDIM  =      4   non local SUM 2l+1 LMDIM =      8
   total plane-waves  NPLWV = 343000
   max r-space proj   IRMAX =      1   max aug-charges    IRDMAX=   4094
   dimension x,y,z NGX =    70 NGY =   70 NGZ =   70
   dimension x,y,z NGXF=   140 NGYF=  140 NGZF=  140
   support grid    NGXF=   140 NGYF=  140 NGZF=  140
   ions per type =               4   1
   NGX,Y,Z   is equivalent  to a cutoff of  11.48, 11.68, 11.31 a.u.
   NGXF,Y,Z  is equivalent  to a cutoff of  22.96, 23.36, 22.62 a.u.

 SYSTEM =  unknown system                          
 POSCAR =   H  C                                   

 Startparameter for this run:
   NWRITE =      2    write-flag & timer
   PREC   = a         normal or accurate (medium, high low for compatibility)
   ISTART =      0    job   : 0-new  1-cont  2-samecut
   ICHARG =      2    charge: 1-file 2-atom 10-const
   ISPIN  =      1    spin polarized calculation?
   LNONCOLLINEAR =      F non collinear calculations
   LSORBIT =      F    spin-orbit coupling
   INIWAV =      1    electr: 0-lowe 1-rand  2-diag
   LASPH  =      F    aspherical Exc in radial PAW
   METAGGA=      F    non-selfconsistent MetaGGA calc.

 Electronic Relaxation 1
   ENCUT  =  400.0 eV  29.40 Ry    5.42 a.u.  16.53 16.25 16.78*2*pi/ulx,y,z
   ENINI  =  400.0     initial cutoff
   ENAUG  =  644.9 eV  augmentation charge cutoff
   NELM   =    120;   NELMIN=  4; NELMDL= -5     # of ELM steps 
   EDIFF  = 0.1E-05   stopping-criterion for ELM
   LREAL  =      F    real-space projection
   NLSPLINE    = F    spline interpolate recip. space projectors
   LCOMPAT=      F    compatible to vasp.4.4
   GGA_COMPAT  = T    GGA compatible to vasp.4.4-vasp.4.6
   LMAXPAW     = -100 max onsite density
   LMAXMIX     =    2 max onsite mixed and CHGCAR
   VOSKOWN=      0    Vosko Wilk Nusair interpolation
   ROPT   =    0.00000   0.00000
 Ionic relaxation
   EDIFFG = 0.1E-04   stopping-criterion for IOM
   NSW    =     10    number of steps for IOM
   NBLOCK =      1;   KBLOCK =     10    inner block; outer block 
   IBRION =      0    ionic relax: 0-MD 1-quasi-New 2-CG
   NFREE  =      0    steps in history (QN), initial steepest desc. (CG)
   ISIF   =      2    stress and relaxation
   IWAVPR =     12    prediction:  0-non 1-charg 2-wave 3-comb
   ISYM   =      0    0-nonsym 1-usesym 2-fastsym
   LCORR  =      T    Harris-Foulkes like correction to forces

   POTIM  = 0.5000    time-step for ionic-motion
   TEIN   =    0.0    initial temperature
   TEBEG  =    0.0;   TEEND  =   0.0 temperature during run
   SMASS  =  -3.00    Nose mass-parameter (am)
   estimated Nose-frequenzy (Omega)   =  0.10E-29 period in steps =****** mass=  -0.235E-26a.u.
   SCALEE = 1.0000    scale energy and forces
   NPACO  =    256;   APACO  = 16.0  distance and # of slots for P.C.
   PSTRESS=    0.0 pullay stress

  Mass of Ions in am
   POMASS =   1.00 12.01
  Ionic Valenz
   ZVAL   =   1.00  4.00
  Atomic Wigner-Seitz radii
   RWIGS  =  -1.00 -1.00
  virtual crystal weights 
   VCA    =   1.00  1.00
   NELECT =       8.0000    total number of electrons
   NUPDOWN=      -1.0000    fix difference up-down

 DOS related values:
   EMIN   =  10.00;   EMAX   =-10.00  energy-range for DOS
   EFERMI =   0.00
   ISMEAR =     0;   SIGMA  =   0.20  broadening in eV -4-tet -1-fermi 0-gaus

 Electronic relaxation 2 (details)
   IALGO  =     68    algorithm
   LDIAG  =      T    sub-space diagonalisation (order eigenvalues)
   LSUBROT=      F    optimize rotation matrix (better conditioning)
   TURBO    =      0    0=normal 1=particle mesh
   IRESTART =      0    0=no restart 2=restart with 2 vectors
   NREBOOT  =      0    no. of reboots
   NMIN     =      0    reboot dimension
   EREF     =   0.00    reference energy to select bands
   IMIX   =      4    mixing-type and parameters
     AMIX     =   0.40;   BMIX     =  1.00
     AMIX_MAG =   1.60;   BMIX_MAG =  1.00
     AMIN     =   0.10
     WC   =   100.;   INIMIX=   1;  MIXPRE=   1;  MAXMIX= -45

 Intra band minimization:
   WEIMIN = 0.0010     energy-eigenvalue tresh-hold
   EBREAK =  0.31E-07  absolut break condition
   DEPER  =   0.30     relativ break condition  

   TIME   =   0.40     timestep for ELM

  volume/ion in A,a.u.               =     207.82      1402.41
  Fermi-wavevector in a.u.,A,eV,Ry     =   0.323262  0.610877  1.421788  0.104498
  Thomas-Fermi vector in A             =   1.212359
 
 Write flags
   LWAVE        =      F    write WAVECAR
   LDOWNSAMPLE  =      F    k-point downsampling of WAVECAR
   LCHARG       =      F    write CHGCAR
   LVTOT        =      F    write LOCPOT, total local potential
   LVHAR        =      F    write LOCPOT, Hartree potential only
   LELF         =      F    write electronic localiz. function (ELF)
   LORBIT       =      0    0 simple, 1 ext, 2 COOP (PROOUT), +10 PAW based schemes


 Dipole corrections
   LMONO  =      F    monopole corrections only (constant potential shift)
   LDIPOL =      F    correct potential (dipole corrections)
   IDIPOL =      0    1-x, 2-y, 3-z, 4-all directions 
   EPSILON=  1.0000000 bulk dielectric constant

 Exchange correlation treatment:
   GGA     =    --    GGA type
   LEXCH   =     8    internal setting for exchange type
   VOSKOWN=      0    Vosko Wilk Nusair interpolation
   LHFCALC =     F    Hartree Fock is set to
   LHFONE  =     F    Hartree Fock one center treatment
   AEXX    =    0.0000 exact exchange contribution

 Linear response parameters
   LEPSILON=     F    determine dielectric tensor
   LRPA    =     F    only Hartree local field effects (RPA)
   LNABLA  =     F    use nabla operator in PAW spheres
   LVEL    =     F    velocity operator in full k-point grid
   LINTERFAST=   F  fast interpolation
   KINTER  =     0    interpolate to denser k-point grid
   CSHIFT  =0.1000    complex shift for real part using Kramers Kronig
   OMEGAMAX=  -1.0    maximum frequency
   DEG_THRESHOLD= 0.2000000E-02 threshold for treating states as degnerate
   RTIME   =   -0.100 relaxation time in fs
  (WPLASMAI=    0.000 imaginary part of plasma frequency in eV, 0.658/RTIME)
   DFIELD  = 0.0000000 0.0000000 0.0000000 field for delta impulse in time
 
 Orbital magnetization related:
   ORBITALMAG=     F  switch on orbital magnetization
   LCHIMAG   =     F  perturbation theory with respect to B field
   DQ        =  0.001000  dq finite difference perturbation B field
   LLRAUG    =     F  two centre corrections for induced B field



--------------------------------------------------------------------------------------------------------


 molecular dynamics for ions
   using a microcanonical ensemble
 charge density and potential will be updated during run
 non-spin polarized calculation
 RMM-DIIS sequential band-by-band and
  variant of blocked Davidson during initial phase
 perform sub-space diagonalisation
    before iterative eigenvector-optimisation
 modified Broyden-mixing scheme, WC =      100.0
 initial mixing is a Kerker type mixing with AMIX =  0.4000 and BMIX =      1.0000
 Hartree-type preconditioning will be used
 using additional bands            4
 reciprocal scheme for non local part
 use partial core corrections
 calculate Harris-corrections to forces 
   (improved forces if not selfconsistent)
 use gradient corrections 
 use of overlap-Matrix (Vanderbilt PP)
 Gauss-broadening in eV      SIGMA  =   0.20


--------------------------------------------------------------------------------------------------------


  energy-cutoff  :      400.00
  volume of cell :     1039.08
      direct lattice vectors                 reciprocal lattice vectors
    10.134743243  0.000000000  0.000000000     0.098670482  0.000559099  0.000502713
    -0.056461676  9.964422327  0.000000000     0.000000000  0.100357047  0.001514538
    -0.051542604 -0.155280495 10.289269389     0.000000000  0.000000000  0.097188630

  length of vectors
    10.134743243  9.964582291 10.290570112     0.098673347  0.100368475  0.097188630


 
 k-points in units of 2pi/SCALE and weight: read from INCAR                         
   0.02466762  0.02522904  0.02480147       0.250
  -0.02466762  0.02494949  0.02455011       0.250
   0.02466762 -0.02494949  0.02404420       0.250
  -0.02466762 -0.02522904  0.02379284       0.250
 
 k-points in reciprocal lattice and weights: read from INCAR                         
   0.25000000  0.25000000  0.25000000       0.250
  -0.25000000  0.25000000  0.25000000       0.250
   0.25000000 -0.25000000  0.25000000       0.250
  -0.25000000 -0.25000000  0.25000000       0.250
 
 position of ions in fractional coordinates (direct lattice) 
   0.53822147  0.40703877  0.36033671
   0.39456900  0.48005335  0.43871968
   0.55197451  0.56580343  0.44285546
   0.52831402  0.41644027  0.53871824
   0.50327813  0.46742448  0.44468617
 
 position of ions in cartesian coordinates  (Angst):
   5.41318166  3.99995291  3.70760151
   3.94913816  4.71532969  4.51410496
   5.53934783  5.56913748  4.55665912
   5.30304710  4.06593426  5.54301715
   5.05128282  4.58856384  4.57549584
 


--------------------------------------------------------------------------------------------------------


 k-point  1 :   0.2500 0.2500 0.2500  plane waves:   18886
 k-point  2 :  -0.2500 0.2500 0.2500  plane waves:   18874
 k-point  3 :   0.2500-0.2500 0.2500  plane waves:   18845
 k-point  4 :  -0.2500-0.2500 0.2500  plane waves:   18866

 maximum and minimum number of plane-waves per node :      4742     4705

 maximum number of plane-waves:     18886
 maximum index in each direction: 
   IXMAX=   16   IYMAX=   16   IZMAX=   16
   IXMIN=  -16   IYMIN=  -16   IZMIN=  -17


 parallel 3D FFT for wavefunctions:
    minimum data exchange during FFTs selected (reduces bandwidth)
 parallel 3D FFT for charge:
    minimum data exchange during FFTs selected (reduces bandwidth)


 total amount of memory used by VASP MPI-rank0    55507. kBytes
=======================================================================

   base      :      30000. kBytes
   nonl-proj :       2791. kBytes
   fftplans  :       8578. kBytes
   grid      :      13527. kBytes
   one-center:          6. kBytes
   wavefun   :        605. kBytes
 
     INWAV:  cpu time    0.0000: real time    0.0000
 Broyden mixing: mesh for mixing (old mesh)
   NGX = 33   NGY = 33   NGZ = 33
  (NGX  =140   NGY  =140   NGZ  =140)
  gives a total of  35937 points

 initial charge density was supplied:
 charge density of overlapping atoms calculated
 number of electron       8.0000000 magnetization 
 keeping initial charge density in first step


--------------------------------------------------------------------------------------------------------


 Maximum index for augmentation-charges          166 (set IRDMAX)


--------------------------------------------------------------------------------------------------------


 First call to EWALD:  gamma=   0.175
 Maximum number of real-space cells 3x 3x 3
 Maximum number of reciprocal cells 3x 3x 3

    FEWALD:  cpu time    0.0015: real time    0.0015


--------------------------------------- Iteration      1(   1)  ---------------------------------------


    POTLOK:  cpu time    0.1431: real time    0.1431
    SETDIJ:  cpu time    0.0015: real time    0.0015
     EDDAV:  cpu time    0.2105: real time    0.2105
       DOS:  cpu time    0.0010: real time    0.0010
    --------------------------------------------
      LOOP:  cpu time    0.3561: real time    0.3561

 eigenvalue-minimisations  :    96
 total energy-change (2. order) : 0.1060939E+02  (-0.2079745E+03)
 number of electron       8.0000000 magnetization 
 augmentation part        8.0000000 magnetization 

 Free energy of the ion-electron system (eV)
  ---------------------------------------------------
  alpha Z        PSCENC =         0.23313946
  Ewald energy   TEWEN  =       127.12201679
  -Hartree energ DENC   =      -243.87467438
  -exchange      EXHF   =         0.00000000
  -V(xc)+E(xc)   XCENC  =        21.93166084
  PAW double counting   =       117.05815612     -117.66307307
  entropy T*S    EENTRO =        -0.00000000
  eigenvalues    EBANDS =       -91.23959219
  atomic energy  EATOM  =       197.04175453
  Solvation  Ediel_sol  =         0.00000000
  ---------------------------------------------------
  free energy    TOTEN  =        10.60938812 eV

  energy without entropy =       10.60938812  energy(sigma->0) =       10.60938812


--------------------------------------------------------------------------------------------------------




--------------------------------------- Iteration      1(   2)  ---------------------------------------


     EDDAV:  cpu time    0.1570: real time    0.1570
       DOS:  cpu time    0.0004: real time    0.0004
    --------------------------------------------
      LOOP:  cpu time    0.1574: real time    0.1574

 eigenvalue-minimisations  :    64
 total energy-change (2. order) :-0.3401725E+02  (-0.3401725E+02)
 number of electron       8.0000000 magnetization 
 augmentation part        8.0000000 magnetization 

 Free energy of the ion-electron system (eV)
  ---------------------------------------------------
  alpha Z        PSCENC =         0.23313946
  Ewald energy   TEWEN  =       127.12201679
  -Hartree energ DENC   =      -243.87467438
  -exchange      EXHF   =         0.00000000
  -V(xc)+E(xc)   XCENC  =        21.93166084
  PAW double counting   =       117.05815612     -117.66307307
  entropy T*S    EENTRO =        -0.00000000
  eigenvalues    EBANDS =      -125.25684159
  atomic energy  EATOM  =       197.04175453
  Solvation  Ediel_sol  =         0.00000000
  ---------------------------------------------------
  free energy    TOTEN  =       -23.40786129 eV

  energy without entropy =      -23.40786129  energy(sigma->0) =      -23.40786129


--------------------------------------------------------------------------------------------------------




--------------------------------------- Iteration      1(   3)  ---------------------------------------


     EDDAV:  cpu time    0.1723: real time    0.1724
       DOS:  cpu time    0.0002: real time    0.0002
    --------------------------------------------
      LOOP:  cpu time    0.1726: real time    0.1726

 eigenvalue-minimisations  :    72
 total energy-change (2. order) :-0.3795811E+01  (-0.3795811E+01)
 number of electron       8.0000000 magnetization 
 augmentation part        8.0000000 magnetization 

 Free energy of the ion-electron system (eV)
  ---------------------------------------------------
  alpha Z        PSCENC =         0.23313946
  Ewald energy   TEWEN  =       127.12201679
  -Hartree energ DENC   =      -243.87467438
  -exchange      EXHF   =         0.00000000
  -V(xc)+E(xc)   XCENC  =        21.93166084
  PAW double counting   =       117.05815612     -117.66307307
  entropy T*S    EENTRO =        -0.00000000
  eigenvalues    EBANDS =      -129.05265240
  atomic energy  EATOM  =       197.04175453
  Solvation  Ediel_sol  =         0.00000000
  ---------------------------------------------------
  free energy    TOTEN  =       -27.20367209 eV

  energy without entropy =      -27.20367209  energy(sigma->0) =      -27.20367209


--------------------------------------------------------------------------------------------------------




--------------------------------------- Iteration      1(   4)  ---------------------------------------


     EDDAV:  cpu time    0.2671: real time    0.2671
       DOS:  cpu time    0.0002: real time    0.0002
    --------------------------------------------
      LOOP:  cpu time    0.2673: real time    0.2673

 eigenvalue-minimisations  :   128
 total energy-change (2. order) :-0.1404244E+00  (-0.1404244E+00)
 number of electron       8.0000000 magnetization 
 augmentation part        8.0000000 magnetization 

 Free energy of the ion-electron system (eV)
  ---------------------------------------------------
  alpha Z        PSCENC =         0.23313946
  Ewald energy   TEWEN  =       127.12201679
  -Hartree energ DENC   =      -243.87467438
  -exchange      EXHF   =         0.00000000
  -V(xc)+E(xc)   XCENC  =        21.93166084
  PAW double counting   =       117.05815612     -117.66307307
  entropy T*S    EENTRO =        -0.00000000
  eigenvalues    EBANDS =      -129.19307678
  atomic energy  EATOM  =       197.04175453
  Solvation  Ediel_sol  =         0.00000000
  ---------------------------------------------------
  free energy    TOTEN  =       -27.34409648 eV

  energy without entropy =      -27.34409648  energy(sigma->0) =      -27.34409648


--------------------------------------------------------------------------------------------------------




--------------------------------------- Iteration      1(   5)  ---------------------------------------


     EDDAV:  cpu time    0.2227: real time    0.2227
       DOS:  cpu time    0.0002: real time    0.0002
    CHARGE:  cpu time    0.0203: real time    0.0203
    MIXING:  cpu time    0.0042: real time    0.0042
    --------------------------------------------
      LOOP:  cpu time    0.2473: real time    0.2474

 eigenvalue-minimisations  :   104
 total energy-change (2. order) :-0.4807533E-04  (-0.4807539E-04)
 number of electron       8.0000002 magnetization 
 augmentation part        0.2201508 magnetization 

 Broyden mixing:
  rms(total) = 0.84646E+00    rms(broyden)= 0.84625E+00
  rms(prec ) = 0.11935E+01
  weight for this iteration     100.00

 Free energy of the ion-electron system (eV)
  ---------------------------------------------------
  alpha Z        PSCENC =         0.23313946
  Ewald energy   TEWEN  =       127.12201679
  -Hartree energ DENC   =      -243.87467438
  -exchange      EXHF   =         0.00000000
  -V(xc)+E(xc)   XCENC  =        21.93166084
  PAW double counting   =       117.05815612     -117.66307307
  entropy T*S    EENTRO =        -0.00000000
  eigenvalues    EBANDS =      -129.19312485
  atomic energy  EATOM  =       197.04175453
  Solvation  Ediel_sol  =         0.00000000
  ---------------------------------------------------
  free energy    TOTEN  =       -27.34414455 eV

  energy without entropy =      -27.34414455  energy(sigma->0) =      -27.34414455


--------------------------------------------------------------------------------------------------------




--------------------------------------- Iteration      1(   6)  ---------------------------------------


    POTLOK:  cpu time    0.1391: real time    0.1391
    SETDIJ:  cpu time    0.0015: real time    0.0015
    EDDIAG:  cpu time    0.0396: real time    0.0396
  RMM-DIIS:  cpu time    0.1596: real time    0.1597
    ORTHCH:  cpu time    0.0018: real time    0.0018
       DOS:  cpu time    0.0002: real time    0.0002
    CHARGE:  cpu time    0.0193: real time    0.0193
    MIXING:  cpu time    0.0043: real time    0.0043
    --------------------------------------------
      LOOP:  cpu time    0.3654: real time    0.3655

 eigenvalue-minimisations  :    64
 total energy-change (2. order) : 0.2732463E+01  (-0.5006903E+00)
 number of electron       8.0000001 magnetization 
 augmentation part        0.1940642 magnetization 

 Broyden mixing:
  rms(total) = 0.41860E+00    rms(broyden)= 0.41851E+00
  rms(prec ) = 0.53976E+00
  weight for this iteration     100.00

 eigenvalues of (default mixing * dielectric matrix)
  average eigenvalue GAMMA=   1.2947
  1.2947

 Free energy of the ion-electron system (eV)
  ---------------------------------------------------
  alpha Z        PSCENC =         0.23313946
  Ewald energy   TEWEN  =       127.12201679
  -Hartree energ DENC   =      -263.04762114
  -exchange      EXHF   =         0.00000000
  -V(xc)+E(xc)   XCENC  =        23.09588229
  PAW double counting   =       233.76869069     -234.54076871
  entropy T*S    EENTRO =        -0.00000000
  eigenvalues    EBANDS =      -108.28477548
  atomic energy  EATOM  =       197.04175453
  Solvation  Ediel_sol  =         0.00000000
  ---------------------------------------------------
  free energy    TOTEN  =       -24.61168157 eV

  energy without entropy =      -24.61168157  energy(sigma->0) =      -24.61168157


--------------------------------------------------------------------------------------------------------




--------------------------------------- Iteration      1(   7)  ---------------------------------------


    POTLOK:  cpu time    0.1391: real time    0.1391
    SETDIJ:  cpu time    0.0015: real time    0.0015
    EDDIAG:  cpu time    0.0375: real time    0.0375
  RMM-DIIS:  cpu time    0.1579: real time    0.1579
    ORTHCH:  cpu time    0.0016: real time    0.0016
       DOS:  cpu time    0.0002: real time    0.0002
    CHARGE:  cpu time    0.0183: real time    0.0183
    MIXING:  cpu time    0.0043: real time    0.0043
    --------------------------------------------
      LOOP:  cpu time    0.3605: real time    0.3605

 eigenvalue-minimisations  :    64
 total energy-change (2. order) : 0.4627746E+00  (-0.1075924E+00)
 number of electron       8.0000001 magnetization 
 augmentation part        0.1841560 magnetization 

 Broyden mixing:
  rms(total) = 0.22389E+00    rms(broyden)= 0.22384E+00
  rms(prec ) = 0.27041E+00
  weight for this iteration     100.00

 eigenvalues of (default mixing * dielectric matrix)
  average eigenvalue GAMMA=   1.8384
  1.4396  2.2371

 Free energy of the ion-electron system (eV)
  ---------------------------------------------------
  alpha Z        PSCENC =         0.23313946
  Ewald energy   TEWEN  =       127.12201679
  -Hartree energ DENC   =      -274.17464929
  -exchange      EXHF   =         0.00000000
  -V(xc)+E(xc)   XCENC  =        23.91820490
  PAW double counting   =       352.40113912     -353.20816316
  entropy T*S    EENTRO =        -0.00000000
  eigenvalues    EBANDS =       -97.48234933
  atomic energy  EATOM  =       197.04175453
  Solvation  Ediel_sol  =         0.00000000
  ---------------------------------------------------
  free energy    TOTEN  =       -24.14890697 eV

  energy without entropy =      -24.14890697  energy(sigma->0) =      -24.14890697


--------------------------------------------------------------------------------------------------------




--------------------------------------- Iteration      1(   8)  ---------------------------------------


    POTLOK:  cpu time    0.1386: real time    0.1386
    SETDIJ:  cpu time    0.0015: real time    0.0015
    EDDIAG:  cpu time    0.0376: real time    0.0376
  RMM-DIIS:  cpu time    0.1598: real time    0.1599
    ORTHCH:  cpu time    0.0021: real time    0.0021
       DOS:  cpu time    0.0002: real time    0.0002
    CHARGE:  cpu time    0.0184: real time    0.0184
    MIXING:  cpu time    0.0045: real time    0.0045
    --------------------------------------------
      LOOP:  cpu time    0.3626: real time    0.3627

 eigenvalue-minimisations  :    64
 total energy-change (2. order) : 0.1439332E+00  (-0.1623427E-01)
 number of electron       8.0000001 magnetization 
 augmentation part        0.1828139 magnetization 

 Broyden mixing:
  rms(total) = 0.22892E-01    rms(broyden)= 0.22869E-01
  rms(prec ) = 0.51776E-01
  weight for this iteration     100.00

 eigenvalues of (default mixing * dielectric matrix)
  average eigenvalue GAMMA=   1.5393
  2.2484  0.9796  1.3900

 Free energy of the ion-electron system (eV)
  ---------------------------------------------------
  alpha Z        PSCENC =         0.23313946
  Ewald energy   TEWEN  =       127.12201679
  -Hartree energ DENC   =      -279.56761378
  -exchange      EXHF   =         0.00000000
  -V(xc)+E(xc)   XCENC  =        24.45292261
  PAW double counting   =       455.71544305     -456.49120978
  entropy T*S    EENTRO =        -0.00000000
  eigenvalues    EBANDS =       -92.51142662
  atomic energy  EATOM  =       197.04175453
  Solvation  Ediel_sol  =         0.00000000
  ---------------------------------------------------
  free energy    TOTEN  =       -24.00497373 eV

  energy without entropy =      -24.00497373  energy(sigma->0) =      -24.00497373


--------------------------------------------------------------------------------------------------------




--------------------------------------- Iteration      1(   9)  ---------------------------------------


    POTLOK:  cpu time    0.1390: real time    0.1390
    SETDIJ:  cpu time    0.0016: real time    0.0016
    EDDIAG:  cpu time    0.0377: real time    0.0377
  RMM-DIIS:  cpu time    0.1609: real time    0.1609
    ORTHCH:  cpu time    0.0015: real time    0.0015
       DOS:  cpu time    0.0002: real time    0.0002
    CHARGE:  cpu time    0.0184: real time    0.0184
    MIXING:  cpu time    0.0047: real time    0.0047
    --------------------------------------------
      LOOP:  cpu time    0.3639: real time    0.3639

 eigenvalue-minimisations  :    64
 total energy-change (2. order) : 0.5531375E-02  (-0.1069060E-02)
 number of electron       8.0000001 magnetization 
 augmentation part        0.1822707 magnetization 

 Broyden mixing:
  rms(total) = 0.19192E-01    rms(broyden)= 0.19189E-01
  rms(prec ) = 0.39539E-01
  weight for this iteration     100.00

 eigenvalues of (default mixing * dielectric matrix)
  average eigenvalue GAMMA=   2.0819
  1.0035  1.3580  2.9830  2.9830

 Free energy of the ion-electron system (eV)
  ---------------------------------------------------
  alpha Z        PSCENC =         0.23313946
  Ewald energy   TEWEN  =       127.12201679
  -Hartree energ DENC   =      -280.79120894
  -exchange      EXHF   =         0.00000000
  -V(xc)+E(xc)   XCENC  =        24.51928459
  PAW double counting   =       458.21581901     -458.99436204
  entropy T*S    EENTRO =        -0.00000000
  eigenvalues    EBANDS =       -91.34588576
  atomic energy  EATOM  =       197.04175453
  Solvation  Ediel_sol  =         0.00000000
  ---------------------------------------------------
  free energy    TOTEN  =       -23.99944235 eV

  energy without entropy =      -23.99944235  energy(sigma->0) =      -23.99944235


--------------------------------------------------------------------------------------------------------




--------------------------------------- Iteration      1(  10)  ---------------------------------------


    POTLOK:  cpu time    0.1348: real time    0.1348
    SETDIJ:  cpu time    0.0014: real time    0.0014
    EDDIAG:  cpu time    0.0369: real time    0.0369
  RMM-DIIS:  cpu time    0.1593: real time    0.1593
    ORTHCH:  cpu time    0.0017: real time    0.0017
       DOS:  cpu time    0.0002: real time    0.0002
    CHARGE:  cpu time    0.0183: real time    0.0183
    MIXING:  cpu time    0.0046: real time    0.0046
    --------------------------------------------
      LOOP:  cpu time    0.3571: real time    0.3571

 eigenvalue-minimisations  :    64
 total energy-change (2. order) : 0.6444292E-02  (-0.2458523E-02)
 number of electron       8.0000001 magnetization 
 augmentation part        0.1812405 magnetization 

 Broyden mixing:
  rms(total) = 0.27125E-01    rms(broyden)= 0.27123E-01
  rms(prec ) = 0.34706E-01
  weight for this iteration     100.00

 eigenvalues of (default mixing * dielectric matrix)
  average eigenvalue GAMMA=   1.7883
  3.0770  2.4005  1.2396  1.2396  0.9850

 Free energy of the ion-electron system (eV)
  ---------------------------------------------------
  alpha Z        PSCENC =         0.23313946
  Ewald energy   TEWEN  =       127.12201679
  -Hartree energ DENC   =      -282.96674661
  -exchange      EXHF   =         0.00000000
  -V(xc)+E(xc)   XCENC  =        24.59012281
  PAW double counting   =       443.19933727     -443.98128564
  entropy T*S    EENTRO =        -0.00000000
  eigenvalues    EBANDS =       -89.23133667
  atomic energy  EATOM  =       197.04175453
  Solvation  Ediel_sol  =         0.00000000
  ---------------------------------------------------
  free energy    TOTEN  =       -23.99299806 eV

  energy without entropy =      -23.99299806  energy(sigma->0) =      -23.99299806


--------------------------------------------------------------------------------------------------------




--------------------------------------- Iteration      1(  11)  ---------------------------------------


    POTLOK:  cpu time    0.1339: real time    0.1340
    SETDIJ:  cpu time    0.0015: real time    0.0015
    EDDIAG:  cpu time    0.0368: real time    0.0368
  RMM-DIIS:  cpu time    0.1556: real time    0.1556
    ORTHCH:  cpu time    0.0017: real time    0.0017
       DOS:  cpu time    0.0002: real time    0.0002
    CHARGE:  cpu time    0.0183: real time    0.0183
    MIXING:  cpu time    0.0049: real time    0.0049
    --------------------------------------------
      LOOP:  cpu time    0.3529: real time    0.3530

 eigenvalue-minimisations  :    64
 total energy-change (2. order) :-0.8846910E-03  (-0.9015284E-03)
 number of electron       8.0000001 magnetization 
 augmentation part        0.1816304 magnetization 

 Broyden mixing:
  rms(total) = 0.94898E-02    rms(broyden)= 0.94865E-02
  rms(prec ) = 0.15022E-01
  weight for this iteration     100.00

 eigenvalues of (default mixing * dielectric matrix)
  average eigenvalue GAMMA=   2.2815
  4.8835  3.0845  2.4258  1.2553  1.0198  1.0198

 Free energy of the ion-electron system (eV)
  ---------------------------------------------------
  alpha Z        PSCENC =         0.23313946
  Ewald energy   TEWEN  =       127.12201679
  -Hartree energ DENC   =      -282.85657062
  -exchange      EXHF   =         0.00000000
  -V(xc)+E(xc)   XCENC  =        24.60434969
  PAW double counting   =       452.01715696     -452.79137292
  entropy T*S    EENTRO =        -0.00000000
  eigenvalues    EBANDS =       -89.36435665
  atomic energy  EATOM  =       197.04175453
  Solvation  Ediel_sol  =         0.00000000
  ---------------------------------------------------
  free energy    TOTEN  =       -23.99388275 eV

  energy without entropy =      -23.99388275  energy(sigma->0) =      -23.99388275


--------------------------------------------------------------------------------------------------------




--------------------------------------- Iteration      1(  12)  ---------------------------------------


    POTLOK:  cpu time    0.1274: real time    0.1274
    SETDIJ:  cpu time    0.0015: real time    0.0015
    EDDIAG:  cpu time    0.0368: real time    0.0368
  RMM-DIIS:  cpu time    0.1584: real time    0.1584
    ORTHCH:  cpu time    0.0014: real time    0.0014
       DOS:  cpu time    0.0002: real time    0.0002
    CHARGE:  cpu time    0.0182: real time    0.0182
    MIXING:  cpu time    0.0049: real time    0.0049
    --------------------------------------------
      LOOP:  cpu time    0.3489: real time    0.3489

 eigenvalue-minimisations  :    64
 total energy-change (2. order) :-0.9212764E-02  (-0.2956159E-03)
 number of electron       8.0000001 magnetization 
 augmentation part        0.1818130 magnetization 

 Broyden mixing:
  rms(total) = 0.11892E-01    rms(broyden)= 0.11891E-01
  rms(prec ) = 0.15585E-01
  weight for this iteration     100.00

 eigenvalues of (default mixing * dielectric matrix)
  average eigenvalue GAMMA=   2.0196
  4.8320  2.9462  2.4226  1.2020  1.0170  1.0170  0.7002

 Free energy of the ion-electron system (eV)
  ---------------------------------------------------
  alpha Z        PSCENC =         0.23313946
  Ewald energy   TEWEN  =       127.12201679
  -Hartree energ DENC   =      -283.07785312
  -exchange      EXHF   =         0.00000000
  -V(xc)+E(xc)   XCENC  =        24.59601358
  PAW double counting   =       448.72105468     -449.49467810
  entropy T*S    EENTRO =        -0.00000000
  eigenvalues    EBANDS =       -89.14454335
  atomic energy  EATOM  =       197.04175453
  Solvation  Ediel_sol  =         0.00000000
  ---------------------------------------------------
  free energy    TOTEN  =       -24.00309552 eV

  energy without entropy =      -24.00309552  energy(sigma->0) =      -24.00309552


--------------------------------------------------------------------------------------------------------




--------------------------------------- Iteration      1(  13)  ---------------------------------------


    POTLOK:  cpu time    0.1277: real time    0.1277
    SETDIJ:  cpu time    0.0017: real time    0.0017
    EDDIAG:  cpu time    0.0368: real time    0.0368
  RMM-DIIS:  cpu time    0.1578: real time    0.1578
    ORTHCH:  cpu time    0.0014: real time    0.0014
       DOS:  cpu time    0.0002: real time    0.0002
    CHARGE:  cpu time    0.0184: real time    0.0184
    MIXING:  cpu time    0.0051: real time    0.0051
    --------------------------------------------
      LOOP:  cpu time    0.3491: real time    0.3492

 eigenvalue-minimisations  :    64
 total energy-change (2. order) :-0.5877903E-03  (-0.1061976E-03)
 number of electron       8.0000001 magnetization 
 augmentation part        0.1815637 magnetization 

 Broyden mixing:
  rms(total) = 0.42582E-02    rms(broyden)= 0.42579E-02
  rms(prec ) = 0.60072E-02
  weight for this iteration     100.00

 eigenvalues of (default mixing * dielectric matrix)
  average eigenvalue GAMMA=   2.4541
  6.2152  4.2261  2.4693  2.4268  1.2093  1.2093  0.9936  0.8834

 Free energy of the ion-electron system (eV)
  ---------------------------------------------------
  alpha Z        PSCENC =         0.23313946
  Ewald energy   TEWEN  =       127.12201679
  -Hartree energ DENC   =      -283.25779320
  -exchange      EXHF   =         0.00000000
  -V(xc)+E(xc)   XCENC  =        24.60086541
  PAW double counting   =       448.51520740     -449.29117977
  entropy T*S    EENTRO =        -0.00000000
  eigenvalues    EBANDS =       -88.96769393
  atomic energy  EATOM  =       197.04175453
  Solvation  Ediel_sol  =         0.00000000
  ---------------------------------------------------
  free energy    TOTEN  =       -24.00368331 eV

  energy without entropy =      -24.00368331  energy(sigma->0) =      -24.00368331


--------------------------------------------------------------------------------------------------------




--------------------------------------- Iteration      1(  14)  ---------------------------------------


    POTLOK:  cpu time    0.1252: real time    0.1252
    SETDIJ:  cpu time    0.0014: real time    0.0014
    EDDIAG:  cpu time    0.0366: real time    0.0366
  RMM-DIIS:  cpu time    0.1586: real time    0.1586
    ORTHCH:  cpu time    0.0018: real time    0.0018
       DOS:  cpu time    0.0002: real time    0.0002
    CHARGE:  cpu time    0.0183: real time    0.0183
    MIXING:  cpu time    0.0053: real time    0.0053
    --------------------------------------------
      LOOP:  cpu time    0.3474: real time    0.3475

 eigenvalue-minimisations  :    64
 total energy-change (2. order) :-0.2884659E-02  (-0.1251336E-03)
 number of electron       8.0000001 magnetization 
 augmentation part        0.1814516 magnetization 

 Broyden mixing:
  rms(total) = 0.29907E-02    rms(broyden)= 0.29891E-02
  rms(prec ) = 0.38776E-02
  weight for this iteration     100.00

 eigenvalues of (default mixing * dielectric matrix)
  average eigenvalue GAMMA=   2.3402
  6.5047  4.0664  2.6144  2.3693  1.1895  1.1895  1.2175  0.9555  0.9555

 Free energy of the ion-electron system (eV)
  ---------------------------------------------------
  alpha Z        PSCENC =         0.23313946
  Ewald energy   TEWEN  =       127.12201679
  -Hartree energ DENC   =      -283.25208144
  -exchange      EXHF   =         0.00000000
  -V(xc)+E(xc)   XCENC  =        24.59063305
  PAW double counting   =       447.86836512     -448.64553258
  entropy T*S    EENTRO =        -0.00000000
  eigenvalues    EBANDS =       -88.96486290
  atomic energy  EATOM  =       197.04175453
  Solvation  Ediel_sol  =         0.00000000
  ---------------------------------------------------
  free energy    TOTEN  =       -24.00656797 eV

  energy without entropy =      -24.00656797  energy(sigma->0) =      -24.00656797


--------------------------------------------------------------------------------------------------------




--------------------------------------- Iteration      1(  15)  ---------------------------------------


    POTLOK:  cpu time    0.1259: real time    0.1259
    SETDIJ:  cpu time    0.0015: real time    0.0015
    EDDIAG:  cpu time    0.0370: real time    0.0370
  RMM-DIIS:  cpu time    0.1603: real time    0.1603
    ORTHCH:  cpu time    0.0015: real time    0.0015
       DOS:  cpu time    0.0002: real time    0.0002
    CHARGE:  cpu time    0.0183: real time    0.0183
    MIXING:  cpu time    0.0057: real time    0.0057
    --------------------------------------------
      LOOP:  cpu time    0.3505: real time    0.3505

 eigenvalue-minimisations  :    64
 total energy-change (2. order) :-0.2282649E-03  (-0.3900752E-05)
 number of electron       8.0000001 magnetization 
 augmentation part        0.1814064 magnetization 

 Broyden mixing:
  rms(total) = 0.20566E-02    rms(broyden)= 0.20564E-02
  rms(prec ) = 0.27080E-02
  weight for this iteration     100.00

 eigenvalues of (default mixing * dielectric matrix)
  average eigenvalue GAMMA=   2.5538
  7.6315  4.8554  2.8870  2.6322  2.1738  1.2444  1.2444  0.9949  0.9706  0.9042

 Free energy of the ion-electron system (eV)
  ---------------------------------------------------
  alpha Z        PSCENC =         0.23313946
  Ewald energy   TEWEN  =       127.12201679
  -Hartree energ DENC   =      -283.26269491
  -exchange      EXHF   =         0.00000000
  -V(xc)+E(xc)   XCENC  =        24.59196236
  PAW double counting   =       448.05282774     -448.82955086
  entropy T*S    EENTRO =        -0.00000000
  eigenvalues    EBANDS =       -88.95625134
  atomic energy  EATOM  =       197.04175453
  Solvation  Ediel_sol  =         0.00000000
  ---------------------------------------------------
  free energy    TOTEN  =       -24.00679623 eV

  energy without entropy =      -24.00679623  energy(sigma->0) =      -24.00679623


--------------------------------------------------------------------------------------------------------




--------------------------------------- Iteration      1(  16)  ---------------------------------------


    POTLOK:  cpu time    0.1267: real time    0.1267
    SETDIJ:  cpu time    0.0015: real time    0.0015
    EDDIAG:  cpu time    0.0367: real time    0.0367
  RMM-DIIS:  cpu time    0.1557: real time    0.1557
    ORTHCH:  cpu time    0.0015: real time    0.0015
       DOS:  cpu time    0.0002: real time    0.0002
    CHARGE:  cpu time    0.0185: real time    0.0185
    MIXING:  cpu time    0.0056: real time    0.0056
    --------------------------------------------
      LOOP:  cpu time    0.3462: real time    0.3463

 eigenvalue-minimisations  :    64
 total energy-change (2. order) :-0.2195767E-03  (-0.1626944E-04)
 number of electron       8.0000001 magnetization 
 augmentation part        0.1814744 magnetization 

 Broyden mixing:
  rms(total) = 0.97293E-03    rms(broyden)= 0.97239E-03
  rms(prec ) = 0.12871E-02
  weight for this iteration     100.00

 eigenvalues of (default mixing * dielectric matrix)
  average eigenvalue GAMMA=   2.5071
  7.8842  4.9097  3.4171  2.4415  2.2451  1.2783  1.2783  1.2462  1.0302  0.9238
  0.9238

 Free energy of the ion-electron system (eV)
  ---------------------------------------------------
  alpha Z        PSCENC =         0.23313946
  Ewald energy   TEWEN  =       127.12201679
  -Hartree energ DENC   =      -283.20940558
  -exchange      EXHF   =         0.00000000
  -V(xc)+E(xc)   XCENC  =        24.59025474
  PAW double counting   =       448.10159193     -448.87757456
  entropy T*S    EENTRO =        -0.00000000
  eigenvalues    EBANDS =       -89.00879313
  atomic energy  EATOM  =       197.04175453
  Solvation  Ediel_sol  =         0.00000000
  ---------------------------------------------------
  free energy    TOTEN  =       -24.00701581 eV

  energy without entropy =      -24.00701581  energy(sigma->0) =      -24.00701581


--------------------------------------------------------------------------------------------------------




--------------------------------------- Iteration      1(  17)  ---------------------------------------


    POTLOK:  cpu time    0.1274: real time    0.1274
    SETDIJ:  cpu time    0.0015: real time    0.0015
    EDDIAG:  cpu time    0.0370: real time    0.0371
  RMM-DIIS:  cpu time    0.1597: real time    0.1597
    ORTHCH:  cpu time    0.0020: real time    0.0020
       DOS:  cpu time    0.0002: real time    0.0002
    CHARGE:  cpu time    0.0183: real time    0.0183
    MIXING:  cpu time    0.0057: real time    0.0057
    --------------------------------------------
      LOOP:  cpu time    0.3518: real time    0.3519

 eigenvalue-minimisations  :    64
 total energy-change (2. order) :-0.3043733E-04  (-0.2302775E-05)
 number of electron       8.0000001 magnetization 
 augmentation part        0.1814466 magnetization 

 Broyden mixing:
  rms(total) = 0.18120E-03    rms(broyden)= 0.18118E-03
  rms(prec ) = 0.29425E-03
  weight for this iteration     100.00

 eigenvalues of (default mixing * dielectric matrix)
  average eigenvalue GAMMA=   2.6104
  8.5395  5.3202  3.9334  2.6450  2.4671  1.8743  1.2985  1.2985  1.1045  1.0031
  0.9204  0.9204

 Free energy of the ion-electron system (eV)
  ---------------------------------------------------
  alpha Z        PSCENC =         0.23313946
  Ewald energy   TEWEN  =       127.12201679
  -Hartree energ DENC   =      -283.25101643
  -exchange      EXHF   =         0.00000000
  -V(xc)+E(xc)   XCENC  =        24.59208398
  PAW double counting   =       448.08236615     -448.85870326
  entropy T*S    EENTRO =        -0.00000000
  eigenvalues    EBANDS =       -88.96868747
  atomic energy  EATOM  =       197.04175453
  Solvation  Ediel_sol  =         0.00000000
  ---------------------------------------------------
  free energy    TOTEN  =       -24.00704624 eV

  energy without entropy =      -24.00704624  energy(sigma->0) =      -24.00704624


--------------------------------------------------------------------------------------------------------




--------------------------------------- Iteration      1(  18)  ---------------------------------------


    POTLOK:  cpu time    0.1306: real time    0.1306
    SETDIJ:  cpu time    0.0015: real time    0.0015
    EDDIAG:  cpu time    0.0368: real time    0.0368
  RMM-DIIS:  cpu time    0.1255: real time    0.1255
    ORTHCH:  cpu time    0.0015: real time    0.0015
       DOS:  cpu time    0.0002: real time    0.0002
    CHARGE:  cpu time    0.0181: real time    0.0181
    MIXING:  cpu time    0.0059: real time    0.0059
    --------------------------------------------
      LOOP:  cpu time    0.3200: real time    0.3201

 eigenvalue-minimisations  :    48
 total energy-change (2. order) :-0.1402570E-04  (-0.7237221E-07)
 number of electron       8.0000001 magnetization 
 augmentation part        0.1814462 magnetization 

 Broyden mixing:
  rms(total) = 0.72053E-04    rms(broyden)= 0.72040E-04
  rms(prec ) = 0.11339E-03
  weight for this iteration     100.00

 eigenvalues of (default mixing * dielectric matrix)
  average eigenvalue GAMMA=   2.6166
  8.6047  5.5406  3.5416  3.5416  2.4225  2.3774  1.2868  1.2868  1.4112  1.1320
  0.9039  0.9836  0.9836

 Free energy of the ion-electron system (eV)
  ---------------------------------------------------
  alpha Z        PSCENC =         0.23313946
  Ewald energy   TEWEN  =       127.12201679
  -Hartree energ DENC   =      -283.24079152
  -exchange      EXHF   =         0.00000000
  -V(xc)+E(xc)   XCENC  =        24.59141616
  PAW double counting   =       448.03500646     -448.81128726
  entropy T*S    EENTRO =        -0.00000000
  eigenvalues    EBANDS =       -88.97831490
  atomic energy  EATOM  =       197.04175453
  Solvation  Ediel_sol  =         0.00000000
  ---------------------------------------------------
  free energy    TOTEN  =       -24.00706027 eV

  energy without entropy =      -24.00706027  energy(sigma->0) =      -24.00706027


--------------------------------------------------------------------------------------------------------




--------------------------------------- Iteration      1(  19)  ---------------------------------------


    POTLOK:  cpu time    0.1317: real time    0.1317
    SETDIJ:  cpu time    0.0015: real time    0.0015
    EDDIAG:  cpu time    0.0366: real time    0.0366
  RMM-DIIS:  cpu time    0.1254: real time    0.1254
    ORTHCH:  cpu time    0.0017: real time    0.0017
       DOS:  cpu time    0.0002: real time    0.0002
    CHARGE:  cpu time    0.0182: real time    0.0182
    MIXING:  cpu time    0.0061: real time    0.0061
    --------------------------------------------
      LOOP:  cpu time    0.3214: real time    0.3215

 eigenvalue-minimisations  :    48
 total energy-change (2. order) :-0.3337851E-05  (-0.5299994E-07)
 number of electron       8.0000001 magnetization 
 augmentation part        0.1814495 magnetization 

 Broyden mixing:
  rms(total) = 0.56681E-04    rms(broyden)= 0.56674E-04
  rms(prec ) = 0.84248E-04
  weight for this iteration     100.00

 eigenvalues of (default mixing * dielectric matrix)
  average eigenvalue GAMMA=   2.5971
  8.6617  5.6466  3.9879  3.5664  2.5040  2.5040  2.0646  1.2779  1.2779  1.0585
  0.9263  0.9263  0.9784  0.9784

 Free energy of the ion-electron system (eV)
  ---------------------------------------------------
  alpha Z        PSCENC =         0.23313946
  Ewald energy   TEWEN  =       127.12201679
  -Hartree energ DENC   =      -283.23427074
  -exchange      EXHF   =         0.00000000
  -V(xc)+E(xc)   XCENC  =        24.59098894
  PAW double counting   =       448.00987969     -448.78611978
  entropy T*S    EENTRO =        -0.00000000
  eigenvalues    EBANDS =       -88.98445251
  atomic energy  EATOM  =       197.04175453
  Solvation  Ediel_sol  =         0.00000000
  ---------------------------------------------------
  free energy    TOTEN  =       -24.00706361 eV

  energy without entropy =      -24.00706361  energy(sigma->0) =      -24.00706361


--------------------------------------------------------------------------------------------------------




--------------------------------------- Iteration      1(  20)  ---------------------------------------


    POTLOK:  cpu time    0.1324: real time    0.1324
    SETDIJ:  cpu time    0.0015: real time    0.0015
    EDDIAG:  cpu time    0.0372: real time    0.0372
  RMM-DIIS:  cpu time    0.1229: real time    0.1229
    ORTHCH:  cpu time    0.0016: real time    0.0016
       DOS:  cpu time    0.0002: real time    0.0002
    CHARGE:  cpu time    0.0179: real time    0.0179
    MIXING:  cpu time    0.0062: real time    0.0062
    --------------------------------------------
      LOOP:  cpu time    0.3199: real time    0.3200

 eigenvalue-minimisations  :    44
 total energy-change (2. order) :-0.1181475E-05  (-0.8721372E-08)
 number of electron       8.0000001 magnetization 
 augmentation part        0.1814484 magnetization 

 Broyden mixing:
  rms(total) = 0.14769E-04    rms(broyden)= 0.14768E-04
  rms(prec ) = 0.23152E-04
  weight for this iteration     100.00

 eigenvalues of (default mixing * dielectric matrix)
  average eigenvalue GAMMA=   2.5352
  8.6917  5.5885  4.3503  3.4321  2.5855  2.4365  2.0387  1.3923  1.2631  1.2631
  1.0561  1.0561  1.0305  0.9221  0.9221

 Free energy of the ion-electron system (eV)
  ---------------------------------------------------
  alpha Z        PSCENC =         0.23313946
  Ewald energy   TEWEN  =       127.12201679
  -Hartree energ DENC   =      -283.23714058
  -exchange      EXHF   =         0.00000000
  -V(xc)+E(xc)   XCENC  =        24.59115275
  PAW double counting   =       448.01445645     -448.79071690
  entropy T*S    EENTRO =        -0.00000000
  eigenvalues    EBANDS =       -88.98172730
  atomic energy  EATOM  =       197.04175453
  Solvation  Ediel_sol  =         0.00000000
  ---------------------------------------------------
  free energy    TOTEN  =       -24.00706479 eV

  energy without entropy =      -24.00706479  energy(sigma->0) =      -24.00706479


--------------------------------------------------------------------------------------------------------




--------------------------------------- Iteration      1(  21)  ---------------------------------------


    POTLOK:  cpu time    0.1330: real time    0.1330
    SETDIJ:  cpu time    0.0015: real time    0.0015
    EDDIAG:  cpu time    0.0369: real time    0.0369
  RMM-DIIS:  cpu time    0.1177: real time    0.1177
    ORTHCH:  cpu time    0.0016: real time    0.0016
       DOS:  cpu time    0.0002: real time    0.0002
    --------------------------------------------
      LOOP:  cpu time    0.2907: real time    0.2908

 eigenvalue-minimisations  :    36
 total energy-change (2. order) :-0.2932387E-06  (-0.2311301E-08)
 number of electron       8.0000001 magnetization 
 augmentation part        0.1814484 magnetization 

 Free energy of the ion-electron system (eV)
  ---------------------------------------------------
  alpha Z        PSCENC =         0.23313946
  Ewald energy   TEWEN  =       127.12201679
  -Hartree energ DENC   =      -283.23800029
  -exchange      EXHF   =         0.00000000
  -V(xc)+E(xc)   XCENC  =        24.59120951
  PAW double counting   =       448.01709017     -448.79335223
  entropy T*S    EENTRO =        -0.00000000
  eigenvalues    EBANDS =       -88.98092304
  atomic energy  EATOM  =       197.04175453
  Solvation  Ediel_sol  =         0.00000000
  ---------------------------------------------------
  free energy    TOTEN  =       -24.00706508 eV

  energy without entropy =      -24.00706508  energy(sigma->0) =      -24.00706508


--------------------------------------------------------------------------------------------------------




 average (electrostatic) potential at core
  the test charge radii are     0.5201  0.6991
  (the norm of the test charge is              1.0000)
       1 -41.4289       2 -41.4107       3 -41.5215       4 -41.2944       5 -58.0523
 
 
 
 E-fermi :  -8.1892     XC(G=0):  -0.6811     alpha+bet : -0.2027


 k-point     1 :       0.2500    0.2500    0.2500
  band No.  band energies     occupation 
      1     -16.7826      2.00000
      2      -9.3127      2.00000
      3      -9.2409      2.00000
      4      -9.1544      2.00000
      5      -0.3357      0.00000
      6       0.5338      0.00000
      7       0.6433      0.00000
      8       0.6750      0.00000

 k-point     2 :      -0.2500    0.2500    0.2500
  band No.  band energies     occupation 
      1     -16.7826      2.00000
      2      -9.3127      2.00000
      3      -9.2408      2.00000
      4      -9.1545      2.00000
      5      -0.3374      0.00000
      6       0.5328      0.00000
      7       0.6444      0.00000
      8       0.6832      0.00000

 k-point     3 :       0.2500   -0.2500    0.2500
  band No.  band energies     occupation 
      1     -16.7825      2.00000
      2      -9.3127      2.00000
      3      -9.2407      2.00000
      4      -9.1543      2.00000
      5      -0.3389      0.00000
      6       0.5347      0.00000
      7       0.6474      0.00000
      8       0.6904      0.00000

 k-point     4 :      -0.2500   -0.2500    0.2500
  band No.  band energies     occupation 
      1     -16.7825      2.00000
      2      -9.3127      2.00000
      3      -9.2408      2.00000
      4      -9.1544      2.00000
      5      -0.3391      0.00000
      6       0.5399      0.00000
      7       0.6529      0.00000
      8       0.6845      0.00000


--------------------------------------------------------------------------------------------------------


 soft charge-density along one line, spin component           1
         0         1         2         3         4         5         6         7         8         9
 total charge-density along one line
 
 pseudopotential strength for first ion, spin component:           1
 -2.341  -4.033  -0.001  -0.001   0.001
 -4.033  -6.863  -0.003  -0.004   0.002
 -0.001  -0.003  -0.338   0.002  -0.001
 -0.001  -0.004   0.002  -0.336  -0.001
  0.001   0.002  -0.001  -0.001  -0.339
 total augmentation occupancy for first ion, spin component:           1
  3.500  -0.632   0.221   0.327  -0.136
 -0.632   0.128  -0.041  -0.060   0.025
  0.221  -0.041   0.020   0.017  -0.007
  0.327  -0.060   0.017   0.034  -0.011
 -0.136   0.025  -0.007  -0.011   0.013


------------------------ aborting loop because EDIFF is reached ----------------------------------------


    CHARGE:  cpu time    0.0179: real time    0.0179
    FORLOC:  cpu time    0.0110: real time    0.0110
    FORNL :  cpu time    0.0178: real time    0.0178
    STRESS:  cpu time    0.1421: real time    0.1422
    FORCOR:  cpu time    0.1321: real time    0.1321
    FORHAR:  cpu time    0.0404: real time    0.0405
    MIXING:  cpu time    0.0066: real time    0.0066
    OFIELD:  cpu time    0.0000: real time    0.0000

  FORCE on cell =-STRESS in cart. coord.  units (eV):
  Direction    XX          YY          ZZ          XY          YZ          ZX
  --------------------------------------------------------------------------------------
  Alpha Z     0.23314     0.23314     0.23314
  Ewald      42.71310    43.48524    40.92366     0.79696    -0.11939    -1.20116
  Hartree    94.40632    95.91000    92.92145    -0.02180    -0.34670    -0.29270
  E(xc)     -27.04680   -27.05756   -27.03972     0.00139    -0.00305    -0.00453
  Local    -195.94513  -198.31717  -192.89327    -0.48825     0.60325     1.23531
  n-local   -15.56332   -15.59771   -15.50804    -0.03128    -0.02645     0.01103
  augment     0.12171     0.12171     0.12440    -0.00263    -0.00142     0.00197
  Kinetic   100.11149   100.65198    99.74239    -0.04136     0.15845     0.21283
  Fock        0.00000     0.00000     0.00000     0.00000     0.00000     0.00000
  -------------------------------------------------------------------------------------
  Total      -0.96949    -0.57038    -1.49599     0.21303     0.26470    -0.03725
  in kB      -1.49488    -0.87947    -2.30669     0.32848     0.40814    -0.05744
  external pressure =       -1.56 kB  Pullay stress =        0.00 kB

  kinetic pressure (ideal gas correction) =      0.00 kB
  total pressure  =     -1.56 kB
  Total+kin.    -1.495      -0.879      -2.307       0.328       0.408      -0.057

 VOLUME and BASIS-vectors are now :
 -----------------------------------------------------------------------------
  energy-cutoff  :      400.00
  volume of cell :     1039.08
      direct lattice vectors                 reciprocal lattice vectors
    10.134743243  0.000000000  0.000000000     0.098670482  0.000559099  0.000502713
    -0.056461676  9.964422327  0.000000000     0.000000000  0.100357047  0.001514538
    -0.051542604 -0.155280495 10.289269389     0.000000000  0.000000000  0.097188630

  length of vectors
    10.134743243  9.964582291 10.290570112     0.098673347  0.100368475  0.097188630


 FORCES acting on ions
    electron-ion (+dipol)            ewald-force                    non-local-force                 convergence-correction
 -----------------------------------------------------------------------------------------------
   -.170E+02 0.277E+02 0.407E+02   0.185E+02 -.304E+02 -.446E+02   -.175E+01 0.281E+01 0.418E+01   -.123E-04 0.319E-04 0.198E-04
   0.516E+02 -.588E+01 0.288E+01   -.564E+02 0.644E+01 -.318E+01   0.526E+01 -.601E+00 0.282E+00   0.417E-04 0.183E-05 -.628E-06
   -.235E+02 -.471E+02 0.899E+00   0.259E+02 0.521E+02 -.954E+00   -.247E+01 -.494E+01 0.104E+00   -.236E-04 -.472E-04 -.990E-06
   -.114E+02 0.238E+02 -.440E+02   0.124E+02 -.257E+02 0.475E+02   -.112E+01 0.234E+01 -.435E+01   -.726E-05 0.278E-04 -.234E-04
   0.414E+00 0.213E+01 -.988E+00   -.493E+00 -.247E+01 0.121E+01   -.247E-01 -.164E+00 0.213E+00   0.479E-05 0.597E-04 -.120E-04
 -----------------------------------------------------------------------------------------------
   0.101E+00 0.563E+00 -.424E+00   0.355E-14 0.355E-14 0.711E-14   -.101E+00 -.563E+00 0.424E+00   0.320E-05 0.741E-04 -.172E-04
 
 
 POSITION                                       TOTAL-FORCE (eV/Angst)
 -----------------------------------------------------------------------------------
      5.41318      3.99995      3.70760        -0.164139      0.108799      0.367814
      3.94914      4.71533      4.51410         0.444912     -0.044197     -0.014770
      5.53935      5.56914      4.55666        -0.020094      0.070748      0.049156
      5.30305      4.06593      5.54302        -0.157923      0.372156     -0.836817
      5.05128      4.58856      4.57550        -0.103184     -0.507838      0.434437
 -----------------------------------------------------------------------------------
    total drift:                               -0.000429     -0.000334     -0.000180


--------------------------------------------------------------------------------------------------------



  FREE ENERGIE OF THE ION-ELECTRON SYSTEM (eV)
  ---------------------------------------------------
  free  energy   TOTEN  =       -24.00706508 eV

  energy  without entropy=      -24.00706508  energy(sigma->0) =      -24.00706508
 


--------------------------------------------------------------------------------------------------------


    POTLOK:  cpu time    0.1344: real time    0.1344


--------------------------------------------------------------------------------------------------------


           RANDOM_SEED =         172281889                0                0
           RANDOM_SEED =         172281889               30                0
   IONSTEP:  cpu time    0.0022: real time    0.0022

  ENERGY OF THE ELECTRON-ION-THERMOSTAT SYSTEM (eV)
  ---------------------------------------------------
% ion-electron   TOTEN  =       -24.007065  see above
  kinetic energy EKIN   =         0.000392
  kin. lattice  EKIN_LAT=         0.000000  (temperature    0.76 K)
  nose potential ES     =         0.000000
  nose kinetic   EPS    =         0.000000
  ---------------------------------------------------
  total energy   ETOTAL =       -24.006673 eV

  maximum distance moved by ions :      0.22E-03

    WAVPRE:  cpu time    0.0388: real time    0.0388
    FEWALD:  cpu time    0.0003: real time    0.0003
    ORTHCH:  cpu time    0.0081: real time    0.0081
     LOOP+:  cpu time    7.2646: real time    7.2655


--------------------------------------- Iteration      2(   1)  ---------------------------------------


    POTLOK:  cpu time    0.1347: real time    0.1347
    SETDIJ:  cpu time    0.0015: real time    0.0015
     EDDAV:  cpu time    0.2085: real time    0.2086
       DOS:  cpu time    0.0002: real time    0.0002
    CHARGE:  cpu time    0.0177: real time    0.0177
    MIXING:  cpu time    0.0055: real time    0.0055
    --------------------------------------------
      LOOP:  cpu time    0.3682: real time    0.3682

 eigenvalue-minimisations  :    96
 total energy-change (2. order) :-0.3021930E-02  (-0.3425040E-03)
 number of electron       8.0000001 magnetization 
 augmentation part        0.1818279 magnetization 

 Broyden mixing:
  rms(total) = 0.30906E-02    rms(broyden)= 0.30890E-02
  rms(prec ) = 0.39868E-02
  weight for this iteration     100.00

 Free energy of the ion-electron system (eV)
  ---------------------------------------------------
  alpha Z        PSCENC =         0.23313946
  Ewald energy   TEWEN  =       127.35432307
  -Hartree energ DENC   =      -283.37662484
  -exchange      EXHF   =         0.00000000
  -V(xc)+E(xc)   XCENC  =        24.59819060
  PAW double counting   =       448.02286253     -448.79912065
  entropy T*S    EENTRO =        -0.00000000
  eigenvalues    EBANDS =       -89.08461143
  atomic energy  EATOM  =       197.04175453
  Solvation  Ediel_sol  =         0.00000000
  ---------------------------------------------------
  free energy    TOTEN  =       -24.01008672 eV

  energy without entropy =      -24.01008672  energy(sigma->0) =      -24.01008672


--------------------------------------------------------------------------------------------------------




--------------------------------------- Iteration      2(   2)  ---------------------------------------


    POTLOK:  cpu time    0.1396: real time    0.1396
    SETDIJ:  cpu time    0.0015: real time    0.0015
    EDDIAG:  cpu time    0.0369: real time    0.0369
  RMM-DIIS:  cpu time    0.1580: real time    0.1580
    ORTHCH:  cpu time    0.0015: real time    0.0015
       DOS:  cpu time    0.0002: real time    0.0002
    CHARGE:  cpu time    0.0181: real time    0.0181
    MIXING:  cpu time    0.0043: real time    0.0043
    --------------------------------------------
      LOOP:  cpu time    0.3599: real time    0.3599

 eigenvalue-minimisations  :    64
 total energy-change (2. order) : 0.2310810E-04  (-0.9454600E-05)
 number of electron       8.0000001 magnetization 
 augmentation part        0.1817625 magnetization 

 Broyden mixing:
  rms(total) = 0.13693E-02    rms(broyden)= 0.13690E-02
  rms(prec ) = 0.16471E-02
  weight for this iteration     100.00

 eigenvalues of (default mixing * dielectric matrix)
  average eigenvalue GAMMA=   1.5777
  1.5777

 Free energy of the ion-electron system (eV)
  ---------------------------------------------------
  alpha Z        PSCENC =         0.23313946
  Ewald energy   TEWEN  =       127.35432307
  -Hartree energ DENC   =      -283.42604516
  -exchange      EXHF   =         0.00000000
  -V(xc)+E(xc)   XCENC  =        24.60080500
  PAW double counting   =       448.68474779     -449.46158606
  entropy T*S    EENTRO =        -0.00000000
  eigenvalues    EBANDS =       -89.03720224
  atomic energy  EATOM  =       197.04175453
  Solvation  Ediel_sol  =         0.00000000
  ---------------------------------------------------
  free energy    TOTEN  =       -24.01006361 eV

  energy without entropy =      -24.01006361  energy(sigma->0) =      -24.01006361


--------------------------------------------------------------------------------------------------------




--------------------------------------- Iteration      2(   3)  ---------------------------------------


    POTLOK:  cpu time    0.1385: real time    0.1385
    SETDIJ:  cpu time    0.0015: real time    0.0015
    EDDIAG:  cpu time    0.0366: real time    0.0366
  RMM-DIIS:  cpu time    0.1566: real time    0.1566
    ORTHCH:  cpu time    0.0015: real time    0.0015
       DOS:  cpu time    0.0002: real time    0.0002
    CHARGE:  cpu time    0.0181: real time    0.0181
    MIXING:  cpu time    0.0043: real time    0.0043
    --------------------------------------------
      LOOP:  cpu time    0.3573: real time    0.3574

 eigenvalue-minimisations  :    64
 total energy-change (2. order) : 0.3098539E-06  (-0.3234735E-05)
 number of electron       8.0000001 magnetization 
 augmentation part        0.1817203 magnetization 

 Broyden mixing:
  rms(total) = 0.55447E-03    rms(broyden)= 0.55411E-03
  rms(prec ) = 0.64230E-03
  weight for this iteration     100.00

 eigenvalues of (default mixing * dielectric matrix)
  average eigenvalue GAMMA=   1.5841
  1.5841  1.5841

 Free energy of the ion-electron system (eV)
  ---------------------------------------------------
  alpha Z        PSCENC =         0.23313946
  Ewald energy   TEWEN  =       127.35432307
  -Hartree energ DENC   =      -283.44962331
  -exchange      EXHF   =         0.00000000
  -V(xc)+E(xc)   XCENC  =        24.60214598
  PAW double counting   =       449.12111499     -449.89824067
  entropy T*S    EENTRO =        -0.00000000
  eigenvalues    EBANDS =       -89.01467735
  atomic energy  EATOM  =       197.04175453
  Solvation  Ediel_sol  =         0.00000000
  ---------------------------------------------------
  free energy    TOTEN  =       -24.01006330 eV

  energy without entropy =      -24.01006330  energy(sigma->0) =      -24.01006330


--------------------------------------------------------------------------------------------------------




--------------------------------------- Iteration      2(   4)  ---------------------------------------


    POTLOK:  cpu time    0.1385: real time    0.1385
    SETDIJ:  cpu time    0.0015: real time    0.0015
    EDDIAG:  cpu time    0.0367: real time    0.0367
  RMM-DIIS:  cpu time    0.1278: real time    0.1278
    ORTHCH:  cpu time    0.0015: real time    0.0015
       DOS:  cpu time    0.0002: real time    0.0002
    --------------------------------------------
      LOOP:  cpu time    0.3062: real time    0.3062

 eigenvalue-minimisations  :    48
 total energy-change (2. order) :-0.3860782E-07  (-0.1100925E-06)
 number of electron       8.0000001 magnetization 
 augmentation part        0.1817203 magnetization 

 Free energy of the ion-electron system (eV)
  ---------------------------------------------------
  alpha Z        PSCENC =         0.23313946
  Ewald energy   TEWEN  =       127.35432307
  -Hartree energ DENC   =      -283.44271341
  -exchange      EXHF   =         0.00000000
  -V(xc)+E(xc)   XCENC  =        24.60193344
  PAW double counting   =       449.24892298     -450.02595164
  entropy T*S    EENTRO =        -0.00000000
  eigenvalues    EBANDS =       -89.02147178
  atomic energy  EATOM  =       197.04175453
  Solvation  Ediel_sol  =         0.00000000
  ---------------------------------------------------
  free energy    TOTEN  =       -24.01006334 eV

  energy without entropy =      -24.01006334  energy(sigma->0) =      -24.01006334


--------------------------------------------------------------------------------------------------------




 average (electrostatic) potential at core
  the test charge radii are     0.5201  0.6991
  (the norm of the test charge is              1.0000)
       1 -41.4345       2 -41.4173       3 -41.5184       4 -41.3090       5 -58.0462
 
 
 
 E-fermi :  -8.1990     XC(G=0):  -0.6979     alpha+bet : -0.2027


 k-point     1 :       0.2500    0.2500    0.2500
  band No.  band energies     occupation 
      1     -16.7902      2.00000
      2      -9.3148      2.00000
      3      -9.2433      2.00000
      4      -9.1626      2.00000
      5      -0.3392      0.00000
      6       0.5196      0.00000
      7       0.6334      0.00000
      8       0.6639      0.00000

 k-point     2 :      -0.2500    0.2500    0.2500
  band No.  band energies     occupation 
      1     -16.7902      2.00000
      2      -9.3147      2.00000
      3      -9.2433      2.00000
      4      -9.1626      2.00000
      5      -0.3411      0.00000
      6       0.5189      0.00000
      7       0.6347      0.00000
      8       0.6718      0.00000

 k-point     3 :       0.2500   -0.2500    0.2500
  band No.  band energies     occupation 
      1     -16.7902      2.00000
      2      -9.3147      2.00000
      3      -9.2432      2.00000
      4      -9.1625      2.00000
      5      -0.3426      0.00000
      6       0.5211      0.00000
      7       0.6383      0.00000
      8       0.6783      0.00000

 k-point     4 :      -0.2500   -0.2500    0.2500
  band No.  band energies     occupation 
      1     -16.7902      2.00000
      2      -9.3147      2.00000
      3      -9.2432      2.00000
      4      -9.1626      2.00000
      5      -0.3427      0.00000
      6       0.5257      0.00000
      7       0.6437      0.00000
      8       0.6729      0.00000


--------------------------------------------------------------------------------------------------------


 soft charge-density along one line, spin component           1
         0         1         2         3         4         5         6         7         8         9
 total charge-density along one line
 
 pseudopotential strength for first ion, spin component:           1
 -2.341  -4.033  -0.001  -0.001   0.001
 -4.033  -6.863  -0.003  -0.004   0.002
 -0.001  -0.003  -0.338   0.002  -0.001
 -0.001  -0.004   0.002  -0.336  -0.001
  0.001   0.002  -0.001  -0.001  -0.339
 total augmentation occupancy for first ion, spin component:           1
  3.503  -0.632   0.221   0.327  -0.137
 -0.632   0.128  -0.041  -0.061   0.025
  0.221  -0.041   0.020   0.017  -0.007
  0.327  -0.061   0.017   0.034  -0.011
 -0.137   0.025  -0.007  -0.011   0.013


------------------------ aborting loop because EDIFF is reached ----------------------------------------


    CHARGE:  cpu time    0.0179: real time    0.0179
    FORLOC:  cpu time    0.0110: real time    0.0110
    FORNL :  cpu time    0.0177: real time    0.0177
    STRESS:  cpu time    0.1416: real time    0.1416
    FORCOR:  cpu time    0.1339: real time    0.1339
    FORHAR:  cpu time    0.0436: real time    0.0436
    MIXING:  cpu time    0.0060: real time    0.0060
    OFIELD:  cpu time    0.0000: real time    0.0000

  FORCE on cell =-STRESS in cart. coord.  units (eV):
  Direction    XX          YY          ZZ          XY          YZ          ZX
  --------------------------------------------------------------------------------------
  Alpha Z     0.23314     0.23314     0.23314
  Ewald      42.77803    43.55168    41.02459     0.75442    -0.13954    -1.17029
  Hartree    94.47487    95.99660    92.97183    -0.01832    -0.33929    -0.29057
  E(xc)     -27.05831   -27.06875   -27.05152     0.00146    -0.00291    -0.00447
  Local    -196.07099  -198.47483  -193.01291    -0.46706     0.60436     1.21152
  n-local   -15.58717   -15.61910   -15.53563    -0.02895    -0.02453     0.01008
  augment     0.12129     0.12143     0.12374    -0.00247    -0.00131     0.00190
  Kinetic   100.18064   100.70568    99.82563    -0.04529     0.15096     0.21092
  Fock        0.00000     0.00000     0.00000     0.00000     0.00000     0.00000
  -------------------------------------------------------------------------------------
  Total      -0.92849    -0.55416    -1.42114     0.19379     0.24774    -0.03092
  in kB      -1.43166    -0.85446    -2.19128     0.29881     0.38200    -0.04767
  external pressure =       -1.49 kB  Pullay stress =        0.00 kB

  kinetic pressure (ideal gas correction) =      0.00 kB
  total pressure  =     -1.49 kB
  Total+kin.    -1.431      -0.854      -2.188       0.298       0.381      -0.047

 VOLUME and BASIS-vectors are now :
 -----------------------------------------------------------------------------
  energy-cutoff  :      400.00
[...]
 -----------------------------------------------------------------------------------------------
   -.898E-01 -.477E+00 0.342E+00   0.533E-14 0.000E+00 -.711E-14   0.898E-01 0.477E+00 -.342E+00   0.569E-04 -.862E-04 -.136E-04
 
 
 POSITION                                       TOTAL-FORCE (eV/Angst)
 -----------------------------------------------------------------------------------
      5.40345      4.00383      3.72893         0.082867     -0.184040     -0.215133
      3.97345      4.71332      4.51215        -0.331830      0.050430     -0.045861
      5.53681      5.57269      4.56027        -0.046436     -0.048464      0.008099
      5.29555      4.08509      5.49607         0.195868     -0.373039      0.631427
      5.05091      4.58652      4.57749         0.099541      0.554985     -0.378373
 -----------------------------------------------------------------------------------
    total drift:                                0.000010     -0.000128      0.000159


--------------------------------------------------------------------------------------------------------



  FREE ENERGIE OF THE ION-ELECTRON SYSTEM (eV)
  ---------------------------------------------------
  free  energy   TOTEN  =       -24.01784997 eV

  energy  without entropy=      -24.01784997  energy(sigma->0) =      -24.01784997
 
 d Force =-0.5731205E-02[-0.688E-02,-0.458E-02]  d Energy =-0.5722377E-02-0.883E-05
 d Force =-0.7426287E+00[-0.746E+00,-0.739E+00]  d Ewald  =-0.7426209E+00-0.774E-05


--------------------------------------------------------------------------------------------------------


    POTLOK:  cpu time    0.1351: real time    0.1351


--------------------------------------------------------------------------------------------------------


           RANDOM_SEED =         172281889               30                0
   IONSTEP:  cpu time    0.0001: real time    0.0001

  ENERGY OF THE ELECTRON-ION-THERMOSTAT SYSTEM (eV)
  ---------------------------------------------------
% ion-electron   TOTEN  =       -24.017850  see above
  kinetic energy EKIN   =         0.010973
  kin. lattice  EKIN_LAT=         0.000000  (temperature   21.22 K)
  nose potential ES     =         0.000000
  nose kinetic   EPS    =         0.000000
  ---------------------------------------------------
  total energy   ETOTAL =       -24.006877 eV

  maximum distance moved by ions :      0.48E-03

    WAVPRE:  cpu time    0.0440: real time    0.0440
    FEWALD:  cpu time    0.0003: real time    0.0003
    ORTHCH:  cpu time    0.0082: real time    0.0083
 Prediction of Wavefunctions ALPHA= 2.218 BETA=-1.257
     LOOP+:  cpu time    2.1520: real time    2.1523


--------------------------------------- Iteration     10(   1)  ---------------------------------------


    POTLOK:  cpu time    0.1372: real time    0.1372
    SETDIJ:  cpu time    0.0014: real time    0.0014
     EDDAV:  cpu time    0.1552: real time    0.1553
       DOS:  cpu time    0.0002: real time    0.0002
    CHARGE:  cpu time    0.0177: real time    0.0177
    MIXING:  cpu time    0.0042: real time    0.0042
    --------------------------------------------
      LOOP:  cpu time    0.3160: real time    0.3160

 eigenvalue-minimisations  :    64
 total energy-change (2. order) : 0.5530267E-02  (-0.3992753E-04)
 number of electron       8.0000002 magnetization 
 augmentation part        0.1886145 magnetization 

 Broyden mixing:
  rms(total) = 0.25391E-03    rms(broyden)= 0.25328E-03
  rms(prec ) = 0.31671E-03
  weight for this iteration     100.00

 Free energy of the ion-electron system (eV)
  ---------------------------------------------------
  alpha Z        PSCENC =         0.23313946
  Ewald energy   TEWEN  =       133.18266176
  -Hartree energ DENC   =      -288.57189888
  -exchange      EXHF   =         0.00000000
  -V(xc)+E(xc)   XCENC  =        24.87306522
  PAW double counting   =       484.44779582     -485.24537117
  entropy T*S    EENTRO =        -0.00000000
  eigenvalues    EBANDS =       -89.97346579
  atomic energy  EATOM  =       197.04175453
  Solvation  Ediel_sol  =         0.00000000
  ---------------------------------------------------
  free energy    TOTEN  =       -24.01231903 eV

  energy without entropy =      -24.01231903  energy(sigma->0) =      -24.01231903


--------------------------------------------------------------------------------------------------------




--------------------------------------- Iteration     10(   2)  ---------------------------------------


    POTLOK:  cpu time    0.1363: real time    0.1363
    SETDIJ:  cpu time    0.0015: real time    0.0015
    EDDIAG:  cpu time    0.0363: real time    0.0363
  RMM-DIIS:  cpu time    0.1600: real time    0.1600
    ORTHCH:  cpu time    0.0018: real time    0.0018
       DOS:  cpu time    0.0002: real time    0.0002
    CHARGE:  cpu time    0.0182: real time    0.0182
    MIXING:  cpu time    0.0043: real time    0.0043
    --------------------------------------------
      LOOP:  cpu time    0.3586: real time    0.3586

 eigenvalue-minimisations  :    64
 total energy-change (2. order) :-0.8950144E-06  (-0.7620129E-06)
 number of electron       8.0000002 magnetization 
 augmentation part        0.1886283 magnetization 

 Broyden mixing:
  rms(total) = 0.13334E-03    rms(broyden)= 0.13303E-03
  rms(prec ) = 0.16201E-03
  weight for this iteration     100.00

 eigenvalues of (default mixing * dielectric matrix)
  average eigenvalue GAMMA=   1.0204
  1.0204

 Free energy of the ion-electron system (eV)
  ---------------------------------------------------
  alpha Z        PSCENC =         0.23313946
  Ewald energy   TEWEN  =       133.18266176
  -Hartree energ DENC   =      -288.56827583
  -exchange      EXHF   =         0.00000000
  -V(xc)+E(xc)   XCENC  =        24.87286198
  PAW double counting   =       484.43431634     -485.23182430
  entropy T*S    EENTRO =        -0.00000000
  eigenvalues    EBANDS =       -89.97695387
  atomic energy  EATOM  =       197.04175453
  Solvation  Ediel_sol  =         0.00000000
  ---------------------------------------------------
  free energy    TOTEN  =       -24.01231992 eV

  energy without entropy =      -24.01231992  energy(sigma->0) =      -24.01231992


--------------------------------------------------------------------------------------------------------




--------------------------------------- Iteration     10(   3)  ---------------------------------------


    POTLOK:  cpu time    0.1375: real time    0.1376
    SETDIJ:  cpu time    0.0015: real time    0.0015
    EDDIAG:  cpu time    0.0369: real time    0.0369
  RMM-DIIS:  cpu time    0.1275: real time    0.1276
    ORTHCH:  cpu time    0.0015: real time    0.0015
       DOS:  cpu time    0.0002: real time    0.0002
    CHARGE:  cpu time    0.0180: real time    0.0180
    MIXING:  cpu time    0.0044: real time    0.0044
    --------------------------------------------
      LOOP:  cpu time    0.3275: real time    0.3276

 eigenvalue-minimisations  :    48
 total energy-change (2. order) :-0.3613979E-06  (-0.2762306E-07)
 number of electron       8.0000002 magnetization 
 augmentation part        0.1886307 magnetization 

 Broyden mixing:
  rms(total) = 0.67675E-04    rms(broyden)= 0.67624E-04
  rms(prec ) = 0.76886E-04
  weight for this iteration     100.00

 eigenvalues of (default mixing * dielectric matrix)
  average eigenvalue GAMMA=   1.4215
  1.3813  1.4616

 Free energy of the ion-electron system (eV)
  ---------------------------------------------------
  alpha Z        PSCENC =         0.23313946
  Ewald energy   TEWEN  =       133.18266176
  -Hartree energ DENC   =      -288.56674644
  -exchange      EXHF   =         0.00000000
  -V(xc)+E(xc)   XCENC  =        24.87279521
  PAW double counting   =       484.41131927     -485.20880634
  entropy T*S    EENTRO =        -0.00000000
  eigenvalues    EBANDS =       -89.97843774
  atomic energy  EATOM  =       197.04175453
  Solvation  Ediel_sol  =         0.00000000
  ---------------------------------------------------
  free energy    TOTEN  =       -24.01232028 eV

  energy without entropy =      -24.01232028  energy(sigma->0) =      -24.01232028


--------------------------------------------------------------------------------------------------------




--------------------------------------- Iteration     10(   4)  ---------------------------------------


    POTLOK:  cpu time    0.1384: real time    0.1384
    SETDIJ:  cpu time    0.0015: real time    0.0015
    EDDIAG:  cpu time    0.0366: real time    0.0366
  RMM-DIIS:  cpu time    0.1271: real time    0.1271
    ORTHCH:  cpu time    0.0017: real time    0.0017
       DOS:  cpu time    0.0002: real time    0.0002
    --------------------------------------------
      LOOP:  cpu time    0.3054: real time    0.3054

 eigenvalue-minimisations  :    48
 total energy-change (2. order) :-0.3974462E-06  (-0.1167181E-07)
 number of electron       8.0000002 magnetization 
 augmentation part        0.1886307 magnetization 

 Free energy of the ion-electron system (eV)
  ---------------------------------------------------
  alpha Z        PSCENC =         0.23313946
  Ewald energy   TEWEN  =       133.18266176
  -Hartree energ DENC   =      -288.56639673
  -exchange      EXHF   =         0.00000000
  -V(xc)+E(xc)   XCENC  =        24.87278562
  PAW double counting   =       484.38928981     -485.18677125
  entropy T*S    EENTRO =        -0.00000000
  eigenvalues    EBANDS =       -89.97878389
  atomic energy  EATOM  =       197.04175453
  Solvation  Ediel_sol  =         0.00000000
  ---------------------------------------------------
  free energy    TOTEN  =       -24.01232068 eV

  energy without entropy =      -24.01232068  energy(sigma->0) =      -24.01232068


--------------------------------------------------------------------------------------------------------




 average (electrostatic) potential at core
  the test charge radii are     0.5201  0.6991
  (the norm of the test charge is              1.0000)
       1 -41.5666       2 -41.5764       3 -41.4533       4 -41.7045       5 -57.8945
 
 
 
 E-fermi :  -8.2885     XC(G=0):  -0.6821     alpha+bet : -0.2027


 k-point     1 :       0.2500    0.2500    0.2500
  band No.  band energies     occupation 
      1     -16.9784      2.00000
      2      -9.4003      2.00000
      3      -9.3417      2.00000
      4      -9.2691      2.00000
      5      -0.3013      0.00000
      6       0.5339      0.00000
      7       0.6570      0.00000
      8       0.6743      0.00000

 k-point     2 :      -0.2500    0.2500    0.2500
  band No.  band energies     occupation 
      1     -16.9784      2.00000
      2      -9.4003      2.00000
      3      -9.3416      2.00000
      4      -9.2691      2.00000
      5      -0.3037      0.00000
      6       0.5377      0.00000
      7       0.6548      0.00000
      8       0.6835      0.00000

 k-point     3 :       0.2500   -0.2500    0.2500
  band No.  band energies     occupation 
      1     -16.9784      2.00000
      2      -9.4002      2.00000
      3      -9.3416      2.00000
      4      -9.2691      2.00000
      5      -0.3059      0.00000
      6       0.5446      0.00000
      7       0.6573      0.00000
      8       0.6903      0.00000

 k-point     4 :      -0.2500   -0.2500    0.2500
  band No.  band energies     occupation 
      1     -16.9784      2.00000
      2      -9.4002      2.00000
      3      -9.3416      2.00000
      4      -9.2691      2.00000
      5      -0.3053      0.00000
      6       0.5445      0.00000
      7       0.6633      0.00000
      8       0.6838      0.00000


--------------------------------------------------------------------------------------------------------


 soft charge-density along one line, spin component           1
         0         1         2         3         4         5         6         7         8         9
 total charge-density along one line
 
 pseudopotential strength for first ion, spin component:           1
 -2.341  -4.035  -0.001  -0.001   0.001
 -4.035  -6.867  -0.003  -0.004   0.002
 -0.001  -0.003  -0.337   0.002  -0.001
 -0.001  -0.004   0.002  -0.335  -0.001
  0.001   0.002  -0.001  -0.001  -0.338
 total augmentation occupancy for first ion, spin component:           1
  3.585  -0.644   0.238   0.345  -0.143
 -0.644   0.130  -0.044  -0.064   0.026
  0.238  -0.044   0.023   0.019  -0.008
  0.345  -0.064   0.019   0.037  -0.011
 -0.143   0.026  -0.008  -0.011   0.014


------------------------ aborting loop because EDIFF is reached ----------------------------------------


    CHARGE:  cpu time    0.0179: real time    0.0179
    FORLOC:  cpu time    0.0110: real time    0.0110
    FORNL :  cpu time    0.0177: real time    0.0177
    STRESS:  cpu time    0.1418: real time    0.1418
    FORCOR:  cpu time    0.1337: real time    0.1337
    FORHAR:  cpu time    0.0427: real time    0.0427
    MIXING:  cpu time    0.0050: real time    0.0050
    OFIELD:  cpu time    0.0000: real time    0.0000

  FORCE on cell =-STRESS in cart. coord.  units (eV):
  Direction    XX          YY          ZZ          XY          YZ          ZX
  --------------------------------------------------------------------------------------
  Alpha Z     0.23314     0.23314     0.23314
  Ewald      44.30181    45.66201    43.21882    -0.43074    -0.56901    -0.10829
  Hartree    96.16767    98.23333    94.16661     0.00839    -0.12511    -0.16556
  E(xc)     -27.35163   -27.35248   -27.35314     0.00191     0.00121    -0.00192
  Local    -199.10552  -202.80822  -195.61112     0.21904     0.49779     0.33454
  n-local   -16.18723   -16.16328   -16.23187     0.02593     0.02450    -0.01357
  augment     0.11033     0.11313     0.10587     0.00225     0.00227    -0.00089
  Kinetic   101.95623   101.99419   102.03159    -0.09499    -0.06568     0.09804
  Fock        0.00000     0.00000     0.00000     0.00000     0.00000     0.00000
  -------------------------------------------------------------------------------------
  Total       0.12479    -0.08817     0.55990    -0.26821    -0.23403     0.14235
  in kB       0.19242    -0.13595     0.86331    -0.41356    -0.36086     0.21950
  external pressure =        0.31 kB  Pullay stress =        0.00 kB

  kinetic pressure (ideal gas correction) =      0.01 kB
  total pressure  =      0.32 kB
  Total+kin.     0.197      -0.135       0.883      -0.414      -0.365       0.217

 VOLUME and BASIS-vectors are now :
 -----------------------------------------------------------------------------
  energy-cutoff  :      400.00
  volume of cell :     1039.08
      direct lattice vectors                 reciprocal lattice vectors
    10.134743243  0.000000000  0.000000000     0.098670482  0.000559099  0.000502713
    -0.056461676  9.964422327  0.000000000     0.000000000  0.100357047  0.001514538
    -0.051542604 -0.155280495 10.289269389     0.000000000  0.000000000  0.097188630

  length of vectors
    10.134743243  9.964582291 10.290570112     0.098673347  0.100368475  0.097188630


 FORCES acting on ions
    electron-ion (+dipol)            ewald-force                    non-local-force                 convergence-correction
 -----------------------------------------------------------------------------------------------
   -.173E+02 0.288E+02 0.417E+02   0.193E+02 -.320E+02 -.464E+02   -.183E+01 0.303E+01 0.441E+01   0.318E-04 -.778E-04 -.484E-04
   0.531E+02 -.625E+01 0.328E+01   -.592E+02 0.697E+01 -.367E+01   0.562E+01 -.664E+00 0.343E+00   -.916E-04 -.114E-04 0.463E-05
   -.234E+02 -.475E+02 0.802E+00   0.257E+02 0.523E+02 -.885E+00   -.240E+01 -.488E+01 0.843E-01   0.472E-04 0.668E-04 0.127E-04
   -.124E+02 0.254E+02 -.464E+02   0.140E+02 -.286E+02 0.522E+02   -.135E+01 0.276E+01 -.504E+01   0.223E-04 -.571E-04 0.521E-04
   -.154E+00 -.963E+00 0.946E+00   0.204E+00 0.128E+01 -.121E+01   0.604E-01 0.334E+00 -.206E+00   0.378E-04 -.111E-03 0.702E-04
 -----------------------------------------------------------------------------------------------
   -.103E+00 -.570E+00 0.417E+00   -.355E-14 -.355E-14 0.000E+00   0.102E+00 0.570E+00 -.417E+00   0.474E-04 -.190E-03 0.913E-04
 
 
 POSITION                                       TOTAL-FORCE (eV/Angst)
 -----------------------------------------------------------------------------------
      5.40219      4.00339      3.73148         0.110364     -0.209039     -0.278943
      3.97581      4.71327      4.51150        -0.411288      0.057842     -0.045408
      5.53602      5.57299      4.56098        -0.040027     -0.051686      0.001042
      5.29537      4.08633      5.49133         0.230088     -0.450119      0.790639
      5.05089      4.58643      4.57767         0.110716      0.652747     -0.467216
 -----------------------------------------------------------------------------------
    total drift:                               -0.000148     -0.000255      0.000114


--------------------------------------------------------------------------------------------------------



  FREE ENERGIE OF THE ION-ELECTRON SYSTEM (eV)
  ---------------------------------------------------
  free  energy   TOTEN  =       -24.01232068 eV

  energy  without entropy=      -24.01232068  energy(sigma->0) =      -24.01232068
 
 d Force =-0.5533702E-02[-0.617E-02,-0.490E-02]  d Energy =-0.5529291E-02-0.441E-05
 d Force =-0.5550449E+00[-0.557E+00,-0.553E+00]  d Ewald  =-0.5550423E+00-0.257E-05


--------------------------------------------------------------------------------------------------------


    POTLOK:  cpu time    0.1407: real time    0.1407


--------------------------------------------------------------------------------------------------------


           RANDOM_SEED =         172281889               30                0
   IONSTEP:  cpu time    0.0001: real time    0.0001

  ENERGY OF THE ELECTRON-ION-THERMOSTAT SYSTEM (eV)
  ---------------------------------------------------
% ion-electron   TOTEN  =       -24.012321  see above
  kinetic energy EKIN   =         0.005568
  kin. lattice  EKIN_LAT=         0.000000  (temperature   10.77 K)
  nose potential ES     =         0.000000
  nose kinetic   EPS    =         0.000000
  ---------------------------------------------------
  total energy   ETOTAL =       -24.006753 eV

  maximum distance moved by ions :      0.28E-03


 mean value of Nose-termostat <S>:     1.000 mean value of <T> :    23.237
 mean temperature <T/S>/<1/S>  :    23.237

    WAVPRE:  cpu time    0.0475: real time    0.0475
    FEWALD:  cpu time    0.0003: real time    0.0003
    ORTHCH:  cpu time    0.0081: real time    0.0081
 Prediction of Wavefunctions ALPHA= 2.133 BETA=-1.161
    POTLOK:  cpu time    0.1359: real time    0.1359
    EDDIAG:  cpu time    0.0373: real time    0.0373
     LOOP+:  cpu time    2.0512: real time    2.0514
    4ORBIT:  cpu time    0.0000: real time    0.0000

 total amount of memory used by VASP MPI-rank0    56717. kBytes
=======================================================================

   base      :      30000. kBytes
   nonl-proj :       2791. kBytes
   fftplans  :       8578. kBytes
   grid      :      13527. kBytes
   one-center:          6. kBytes
   wavefun   :       1815. kBytes
 
  
  
 General timing and accounting informations for this job:
 ========================================================
  
                  Total CPU time used (sec):       27.376
                            User time (sec):       26.132
                          System time (sec):        1.244
                         Elapsed time (sec):       27.629
  
                   Maximum memory used (kb):      176772.
                   Average memory used (kb):           0.
  
                          Minor page faults:       266651
                          Major page faults:            0
                 Voluntary context switches:           66
