 vasp.5.4.4.18Apr17-6-g9f103f2a35 (build Jul 09 2021 13:05:15) complex          
  
 executed on             LinuxIFC date 2021.11.04  19:03:04
 running on   16 total cores
 distrk:  each k-point on   16 cores,    1 groups
 distr:  one band on NCORES_PER_BAND=   4 cores,    4 groups


--------------------------------------------------------------------------------------------------------


 INCAR:
 POTCAR:    PAW_PBE H 15Jun2001                   
 POTCAR:    PAW_PBE C 08Apr2002                   
 POTCAR:    PAW_PBE H 15Jun2001                   
   VRHFIN =H: ultrasoft test                                                    
   LEXCH  = PE                                                                  
   EATOM  =    12.4884 eV,    0.9179 Ry                                         
                                                                                
   TITEL  = PAW_PBE H 15Jun2001                                                 
   LULTRA =        F    use ultrasoft PP ?                                      
   IUNSCR =        0    unscreen: 0-lin 1-nonlin 2-no                           
   RPACOR =    0.000    partial core radius                                     
   POMASS =    1.000; ZVAL   =    1.000    mass and valenz                      
   RCORE  =    1.100    outmost cutoff radius                                   
   RWIGS  =    0.700; RWIGS  =    0.370    wigner-seitz radius (au A)           
   ENMAX  =  250.000; ENMIN  =  200.000 eV                                      
   RCLOC  =    0.701    cutoff for local pot                                    
   LCOR   =        T    correct aug charges                                     
   LPAW   =        T    paw PP                                                  
   EAUG   =  400.000                                                            
   RMAX   =    1.123    core radius for proj-oper                               
   RAUG   =    1.200    factor for augmentation sphere                          
   RDEP   =    1.112    radius for radial grids                                 
   RDEPT  =    0.926    core radius for aug-charge                              
                                                                                
   Atomic configuration                                                         
    2 entries                                                                   
     n  l   j            E        occ.                                          
     1  0  0.50        -6.4927   1.0000                                         
     2  1  0.50        -3.4015   0.0000                                         
   Description                                                                  
     l       E           TYP  RCUT    TYP  RCUT                                 
     0     -6.4927494     23  1.100                                             
     0      6.8029130     23  1.100                                             
     1     -4.0817478     23  1.100                                             
  local pseudopotential read in
  atomic valenz-charges read in
  non local Contribution for L=           0  read in
    real space projection operators read in
  non local Contribution for L=           0  read in
    real space projection operators read in
  non local Contribution for L=           1  read in
    real space projection operators read in
    PAW grid and wavefunctions read in
 
   number of l-projection  operators is LMAX  =           3
   number of lm-projection operators is LMMAX =           5
 
 POTCAR:    PAW_PBE C 08Apr2002                   
   VRHFIN =C: s2p2                                                              
   LEXCH  = PE                                                                  
   EATOM  =   147.1560 eV,   10.8157 Ry                                         
                                                                                
   TITEL  = PAW_PBE C 08Apr2002                                                 
   LULTRA =        F    use ultrasoft PP ?                                      
   IUNSCR =        1    unscreen: 0-lin 1-nonlin 2-no                           
   RPACOR =    1.200    partial core radius                                     
   POMASS =   12.011; ZVAL   =    4.000    mass and valenz                      
   RCORE  =    1.500    outmost cutoff radius                                   
   RWIGS  =    1.630; RWIGS  =    0.863    wigner-seitz radius (au A)           
   ENMAX  =  400.000; ENMIN  =  300.000 eV                                      
   ICORE  =        2    local potential                                         
   LCOR   =        T    correct aug charges                                     
   LPAW   =        T    paw PP                                                  
   EAUG   =  644.873                                                            
   DEXC   =    0.000                                                            
   RMAX   =    1.529    core radius for proj-oper                               
   RAUG   =    1.300    factor for augmentation sphere                          
   RDEP   =    1.501    radius for radial grids                                 
   RDEPT  =    1.300    core radius for aug-charge                              
                                                                                
   Atomic configuration                                                         
    4 entries                                                                   
     n  l   j            E        occ.                                          
     1  0  0.50      -273.3789   2.0000                                         
     2  0  0.50       -13.7508   2.0000                                         
     2  1  0.50        -5.2854   2.0000                                         
     3  2  1.50        -5.4423   0.0000                                         
   Description                                                                  
     l       E           TYP  RCUT    TYP  RCUT                                 
     0    -13.7508458     23  1.200                                             
     0     -8.2022199     23  1.200                                             
     1     -5.2854383     23  1.500                                             
     1     34.0145650     23  1.500                                             
     2     -5.4423304      7  1.500                                             
  local pseudopotential read in
  partial core-charges read in
  partial kinetic energy density read in
  atomic valenz-charges read in
  non local Contribution for L=           0  read in
    real space projection operators read in
  non local Contribution for L=           0  read in
    real space projection operators read in
  non local Contribution for L=           1  read in
    real space projection operators read in
  non local Contribution for L=           1  read in
    real space projection operators read in
    PAW grid and wavefunctions read in
 
   number of l-projection  operators is LMAX  =           4
   number of lm-projection operators is LMMAX =           8
 
  PAW_PBE H 15Jun2001                   :
 energy of atom  1       EATOM=  -12.4884
 kinetic energy error for atom=    0.0098 (will be added to EATOM!!)
  PAW_PBE C 08Apr2002                   :
 energy of atom  2       EATOM= -147.1560
 kinetic energy error for atom=    0.0288 (will be added to EATOM!!)
 
 
 POSCAR:  H  C                                   
  positions in cartesian coordinates
  No initial velocities read in
 exchange correlation table for  LEXCH =        8
   RHO(1)=    0.500       N(1)  =     2000
   RHO(2)=  100.500       N(2)  =     4000
 


--------------------------------------------------------------------------------------------------------


 ion  position               nearest neighbor table
   1  0.538  0.407  0.361-   5 1.09
   2  0.395  0.480  0.438-   5 1.09
   3  0.552  0.565  0.443-   5 1.10
   4  0.528  0.416  0.540-   5 1.08
   5  0.503  0.467  0.445-   4 1.08   2 1.09   1 1.09   3 1.10
 

IMPORTANT INFORMATION: All symmetrisations will be switched off!
NOSYMM: (Re-)initialisation of all symmetry stuff for point group C_1.

 
 

Automatic generation of k-mesh.
 generate k-points for:    2    2    2
Space group operators:
 irot       det(A)        alpha          n_x          n_y          n_z        tau_x        tau_y        tau_z
    1     1.000000     0.000000     1.000000     0.000000     0.000000     0.000000     0.000000     0.000000
 
 Subroutine IBZKPT returns following result:
 ===========================================
 
 Found      4 irreducible k-points:
 
 Following reciprocal coordinates:
            Coordinates               Weight
  0.250000  0.250000  0.250000      2.000000
 -0.250000  0.250000  0.250000      2.000000
  0.250000 -0.250000  0.250000      2.000000
 -0.250000 -0.250000  0.250000      2.000000
 
 Following cartesian coordinates:
            Coordinates               Weight
  0.025166  0.024832  0.024521      2.000000
 -0.025166  0.025524  0.024931      2.000000
  0.025166 -0.025524  0.025631      2.000000
 -0.025166 -0.024832  0.026041      2.000000
 


--------------------------------------------------------------------------------------------------------




 Dimension of arrays:
   k-points           NKPTS =      4   k-points in BZ     NKDIM =      4   number of bands    NBANDS=      8
   number of dos      NEDOS =    301   number of ions     NIONS =      5
   non local maximal  LDIM  =      4   non local SUM 2l+1 LMDIM =      8
   total plane-waves  NPLWV = 343000
   max r-space proj   IRMAX =      1   max aug-charges    IRDMAX=   4349
   dimension x,y,z NGX =    70 NGY =   70 NGZ =   70
   dimension x,y,z NGXF=   140 NGYF=  140 NGZF=  140
   support grid    NGXF=   140 NGYF=  140 NGZF=  140
   ions per type =               4   1
   NGX,Y,Z   is equivalent  to a cutoff of  11.71, 11.72, 11.76 a.u.
   NGXF,Y,Z  is equivalent  to a cutoff of  23.43, 23.44, 23.53 a.u.

 SYSTEM =  unknown system                          
 POSCAR =   H  C                                   

 Startparameter for this run:
   NWRITE =      2    write-flag & timer
   PREC   = a         normal or accurate (medium, high low for compatibility)
   ISTART =      0    job   : 0-new  1-cont  2-samecut
   ICHARG =      2    charge: 1-file 2-atom 10-const
   ISPIN  =      1    spin polarized calculation?
   LNONCOLLINEAR =      F non collinear calculations
   LSORBIT =      F    spin-orbit coupling
   INIWAV =      1    electr: 0-lowe 1-rand  2-diag
   LASPH  =      F    aspherical Exc in radial PAW
   METAGGA=      F    non-selfconsistent MetaGGA calc.

 Electronic Relaxation 1
   ENCUT  =  400.0 eV  29.40 Ry    5.42 a.u.  16.20 16.19 16.13*2*pi/ulx,y,z
   ENINI  =  400.0     initial cutoff
   ENAUG  =  644.9 eV  augmentation charge cutoff
   NELM   =    120;   NELMIN=  4; NELMDL= -5     # of ELM steps 
   EDIFF  = 0.1E-05   stopping-criterion for ELM
   LREAL  =      F    real-space projection
   NLSPLINE    = F    spline interpolate recip. space projectors
   LCOMPAT=      F    compatible to vasp.4.4
   GGA_COMPAT  = T    GGA compatible to vasp.4.4-vasp.4.6
   LMAXPAW     = -100 max onsite density
   LMAXMIX     =    2 max onsite mixed and CHGCAR
   VOSKOWN=      0    Vosko Wilk Nusair interpolation
   ROPT   =    0.00000   0.00000
 Ionic relaxation
   EDIFFG = 0.1E-04   stopping-criterion for IOM
   NSW    =     10    number of steps for IOM
   NBLOCK =      1;   KBLOCK =     10    inner block; outer block 
   IBRION =      0    ionic relax: 0-MD 1-quasi-New 2-CG
   NFREE  =      0    steps in history (QN), initial steepest desc. (CG)
   ISIF   =      2    stress and relaxation
   IWAVPR =     12    prediction:  0-non 1-charg 2-wave 3-comb
   ISYM   =      0    0-nonsym 1-usesym 2-fastsym
   LCORR  =      T    Harris-Foulkes like correction to forces

   POTIM  = 0.5000    time-step for ionic-motion
   TEIN   =    0.0    initial temperature
   TEBEG  =    0.0;   TEEND  =   0.0 temperature during run
   SMASS  =  -3.00    Nose mass-parameter (am)
   estimated Nose-frequenzy (Omega)   =  0.10E-29 period in steps =****** mass=  -0.226E-26a.u.
   SCALEE = 1.0000    scale energy and forces
   NPACO  =    256;   APACO  = 16.0  distance and # of slots for P.C.
   PSTRESS=    0.0 pullay stress

  Mass of Ions in am
   POMASS =   1.00 12.01
  Ionic Valenz
   ZVAL   =   1.00  4.00
  Atomic Wigner-Seitz radii
   RWIGS  =  -1.00 -1.00
  virtual crystal weights 
   VCA    =   1.00  1.00
   NELECT =       8.0000    total number of electrons
   NUPDOWN=      -1.0000    fix difference up-down

 DOS related values:
   EMIN   =  10.00;   EMAX   =-10.00  energy-range for DOS
   EFERMI =   0.00
   ISMEAR =     0;   SIGMA  =   0.20  broadening in eV -4-tet -1-fermi 0-gaus

 Electronic relaxation 2 (details)
   IALGO  =     68    algorithm
   LDIAG  =      T    sub-space diagonalisation (order eigenvalues)
   LSUBROT=      F    optimize rotation matrix (better conditioning)
   TURBO    =      0    0=normal 1=particle mesh
   IRESTART =      0    0=no restart 2=restart with 2 vectors
   NREBOOT  =      0    no. of reboots
   NMIN     =      0    reboot dimension
   EREF     =   0.00    reference energy to select bands
   IMIX   =      4    mixing-type and parameters
     AMIX     =   0.40;   BMIX     =  1.00
     AMIX_MAG =   1.60;   BMIX_MAG =  1.00
     AMIN     =   0.10
     WC   =   100.;   INIMIX=   1;  MIXPRE=   1;  MAXMIX= -45

 Intra band minimization:
   WEIMIN = 0.0010     energy-eigenvalue tresh-hold
   EBREAK =  0.31E-07  absolut break condition
   DEPER  =   0.30     relativ break condition  

   TIME   =   0.40     timestep for ELM

  volume/ion in A,a.u.               =     195.08      1316.48
  Fermi-wavevector in a.u.,A,eV,Ry     =   0.330148  0.623889  1.483002  0.108998
  Thomas-Fermi vector in A             =   1.225203
 
 Write flags
   LWAVE        =      F    write WAVECAR
   LDOWNSAMPLE  =      F    k-point downsampling of WAVECAR
   LCHARG       =      F    write CHGCAR
   LVTOT        =      F    write LOCPOT, total local potential
   LVHAR        =      F    write LOCPOT, Hartree potential only
   LELF         =      F    write electronic localiz. function (ELF)
   LORBIT       =      0    0 simple, 1 ext, 2 COOP (PROOUT), +10 PAW based schemes


 Dipole corrections
   LMONO  =      F    monopole corrections only (constant potential shift)
   LDIPOL =      F    correct potential (dipole corrections)
   IDIPOL =      0    1-x, 2-y, 3-z, 4-all directions 
   EPSILON=  1.0000000 bulk dielectric constant

 Exchange correlation treatment:
   GGA     =    --    GGA type
   LEXCH   =     8    internal setting for exchange type
   VOSKOWN=      0    Vosko Wilk Nusair interpolation
   LHFCALC =     F    Hartree Fock is set to
   LHFONE  =     F    Hartree Fock one center treatment
   AEXX    =    0.0000 exact exchange contribution

 Linear response parameters
   LEPSILON=     F    determine dielectric tensor
   LRPA    =     F    only Hartree local field effects (RPA)
   LNABLA  =     F    use nabla operator in PAW spheres
   LVEL    =     F    velocity operator in full k-point grid
   LINTERFAST=   F  fast interpolation
   KINTER  =     0    interpolate to denser k-point grid
   CSHIFT  =0.1000    complex shift for real part using Kramers Kronig
   OMEGAMAX=  -1.0    maximum frequency
   DEG_THRESHOLD= 0.2000000E-02 threshold for treating states as degnerate
   RTIME   =   -0.100 relaxation time in fs
  (WPLASMAI=    0.000 imaginary part of plasma frequency in eV, 0.658/RTIME)
   DFIELD  = 0.0000000 0.0000000 0.0000000 field for delta impulse in time
 
 Orbital magnetization related:
   ORBITALMAG=     F  switch on orbital magnetization
   LCHIMAG   =     F  perturbation theory with respect to B field
   DQ        =  0.001000  dq finite difference perturbation B field
   LLRAUG    =     F  two centre corrections for induced B field



--------------------------------------------------------------------------------------------------------


 molecular dynamics for ions
   using a microcanonical ensemble
 charge density and potential will be updated during run
 non-spin polarized calculation
 RMM-DIIS sequential band-by-band and
  variant of blocked Davidson during initial phase
 perform sub-space diagonalisation
    before iterative eigenvector-optimisation
 modified Broyden-mixing scheme, WC =      100.0
 initial mixing is a Kerker type mixing with AMIX =  0.4000 and BMIX =      1.0000
 Hartree-type preconditioning will be used
 using additional bands            4
 reciprocal scheme for non local part
 use partial core corrections
 calculate Harris-corrections to forces 
   (improved forces if not selfconsistent)
 use gradient corrections 
 use of overlap-Matrix (Vanderbilt PP)
 Gauss-broadening in eV      SIGMA  =   0.20


--------------------------------------------------------------------------------------------------------


  energy-cutoff  :      400.00
  volume of cell :      975.41
      direct lattice vectors                 reciprocal lattice vectors
     9.934006436  0.000000000  0.000000000     0.100664320 -0.001384305 -0.000820955
     0.136544507  9.929285797  0.000000000     0.000000000  0.100712178 -0.002220511
     0.083645753  0.218030638  9.888869673     0.000000000  0.000000000  0.101123792

  length of vectors
     9.934006436  9.930224612  9.891626629     0.100677185  0.100736654  0.101123792


 
 k-points in units of 2pi/SCALE and weight: read from INCAR                         
   0.02516608  0.02483197  0.02452058       0.250
  -0.02516608  0.02552412  0.02493106       0.250
   0.02516608 -0.02552412  0.02563084       0.250
  -0.02516608 -0.02483197  0.02604131       0.250
 
 k-points in reciprocal lattice and weights: read from INCAR                         
   0.25000000  0.25000000  0.25000000       0.250
  -0.25000000  0.25000000  0.25000000       0.250
   0.25000000 -0.25000000  0.25000000       0.250
  -0.25000000 -0.25000000  0.25000000       0.250
 
 position of ions in fractional coordinates (direct lattice) 
   0.53807050  0.40680341  0.36051889
   0.39475940  0.48045295  0.43846853
   0.55235154  0.56540515  0.44299387
   0.52769235  0.41639409  0.53975891
   0.50339881  0.46701445  0.44530293
 
 position of ions in cartesian coordinates  (Angst):
   5.43089849  4.11787150  3.56512434
   4.02382162  4.86615425  4.33595816
   5.60132130  5.71065559  4.38070862
   5.34410410  4.25217990  5.33760555
   5.10178301  4.73420959  4.40354266
 


--------------------------------------------------------------------------------------------------------


 k-point  1 :   0.2500 0.2500 0.2500  plane waves:   17746
 k-point  2 :  -0.2500 0.2500 0.2500  plane waves:   17704
 k-point  3 :   0.2500-0.2500 0.2500  plane waves:   17715
 k-point  4 :  -0.2500-0.2500 0.2500  plane waves:   17710

 maximum and minimum number of plane-waves per node :      4444     4415

 maximum number of plane-waves:     17746
 maximum index in each direction: 
   IXMAX=   16   IYMAX=   16   IZMAX=   15
   IXMIN=  -16   IYMIN=  -16   IZMIN=  -16


 parallel 3D FFT for wavefunctions:
    minimum data exchange during FFTs selected (reduces bandwidth)
 parallel 3D FFT for charge:
    minimum data exchange during FFTs selected (reduces bandwidth)


 total amount of memory used by VASP MPI-rank0    55298. kBytes
=======================================================================

   base      :      30000. kBytes
   nonl-proj :       2623. kBytes
   fftplans  :       8573. kBytes
   grid      :      13527. kBytes
   one-center:          6. kBytes
   wavefun   :        569. kBytes
 
     INWAV:  cpu time    0.0000: real time    0.0001
 Broyden mixing: mesh for mixing (old mesh)
   NGX = 33   NGY = 33   NGZ = 33
  (NGX  =140   NGY  =140   NGZ  =140)
  gives a total of  35937 points

 initial charge density was supplied:
 charge density of overlapping atoms calculated
 number of electron       8.0000000 magnetization 
 keeping initial charge density in first step


--------------------------------------------------------------------------------------------------------


 Maximum index for augmentation-charges          192 (set IRDMAX)


--------------------------------------------------------------------------------------------------------


 First call to EWALD:  gamma=   0.179
 Maximum number of real-space cells 3x 3x 3
 Maximum number of reciprocal cells 3x 3x 3

    FEWALD:  cpu time    0.0018: real time    0.0018


--------------------------------------- Iteration      1(   1)  ---------------------------------------


    POTLOK:  cpu time    0.1564: real time    0.1594
    SETDIJ:  cpu time    0.0023: real time    0.0023
     EDDAV:  cpu time    0.2230: real time    0.2260
       DOS:  cpu time    0.0008: real time    0.0008
    --------------------------------------------
      LOOP:  cpu time    0.3825: real time    0.3885

 eigenvalue-minimisations  :    96
 total energy-change (2. order) : 0.1539373E+02  (-0.1948948E+03)
 number of electron       8.0000000 magnetization 
 augmentation part        8.0000000 magnetization 

 Free energy of the ion-electron system (eV)
  ---------------------------------------------------
  alpha Z        PSCENC =         0.24835683
  Ewald energy   TEWEN  =       129.55081153
  -Hartree energ DENC   =      -243.93140375
  -exchange      EXHF   =         0.00000000
  -V(xc)+E(xc)   XCENC  =        22.05506271
  PAW double counting   =       117.05815612     -117.66307307
  entropy T*S    EENTRO =        -0.00000000
  eigenvalues    EBANDS =       -88.96593649
  atomic energy  EATOM  =       197.04175453
  Solvation  Ediel_sol  =         0.00000000
  ---------------------------------------------------
  free energy    TOTEN  =        15.39372841 eV

  energy without entropy =       15.39372841  energy(sigma->0) =       15.39372841


--------------------------------------------------------------------------------------------------------




--------------------------------------- Iteration      1(   2)  ---------------------------------------


     EDDAV:  cpu time    0.1591: real time    0.1606
       DOS:  cpu time    0.0002: real time    0.0002
    --------------------------------------------
      LOOP:  cpu time    0.1593: real time    0.1608

 eigenvalue-minimisations  :    64
 total energy-change (2. order) :-0.3815050E+02  (-0.3815050E+02)
 number of electron       8.0000000 magnetization 
 augmentation part        8.0000000 magnetization 

 Free energy of the ion-electron system (eV)
  ---------------------------------------------------
  alpha Z        PSCENC =         0.24835683
  Ewald energy   TEWEN  =       129.55081153
  -Hartree energ DENC   =      -243.93140375
  -exchange      EXHF   =         0.00000000
  -V(xc)+E(xc)   XCENC  =        22.05506271
  PAW double counting   =       117.05815612     -117.66307307
  entropy T*S    EENTRO =        -0.00000000
  eigenvalues    EBANDS =      -127.11643791
  atomic energy  EATOM  =       197.04175453
  Solvation  Ediel_sol  =         0.00000000
  ---------------------------------------------------
  free energy    TOTEN  =       -22.75677301 eV

  energy without entropy =      -22.75677301  energy(sigma->0) =      -22.75677301


--------------------------------------------------------------------------------------------------------




--------------------------------------- Iteration      1(   3)  ---------------------------------------


     EDDAV:  cpu time    0.1584: real time    0.1596
       DOS:  cpu time    0.0002: real time    0.0002
    --------------------------------------------
      LOOP:  cpu time    0.1586: real time    0.1598

 eigenvalue-minimisations  :    64
 total energy-change (2. order) :-0.4719039E+01  (-0.4719039E+01)
 number of electron       8.0000000 magnetization 
 augmentation part        8.0000000 magnetization 

 Free energy of the ion-electron system (eV)
  ---------------------------------------------------
  alpha Z        PSCENC =         0.24835683
  Ewald energy   TEWEN  =       129.55081153
  -Hartree energ DENC   =      -243.93140375
  -exchange      EXHF   =         0.00000000
  -V(xc)+E(xc)   XCENC  =        22.05506271
  PAW double counting   =       117.05815612     -117.66307307
  entropy T*S    EENTRO =        -0.00000000
  eigenvalues    EBANDS =      -131.83547648
  atomic energy  EATOM  =       197.04175453
  Solvation  Ediel_sol  =         0.00000000
  ---------------------------------------------------
  free energy    TOTEN  =       -27.47581158 eV

  energy without entropy =      -27.47581158  energy(sigma->0) =      -27.47581158


--------------------------------------------------------------------------------------------------------




--------------------------------------- Iteration      1(   4)  ---------------------------------------


     EDDAV:  cpu time    0.2649: real time    0.2685
       DOS:  cpu time    0.0003: real time    0.0003
    --------------------------------------------
      LOOP:  cpu time    0.2652: real time    0.2688

 eigenvalue-minimisations  :   128
 total energy-change (2. order) :-0.1896278E+00  (-0.1896278E+00)
 number of electron       8.0000000 magnetization 
 augmentation part        8.0000000 magnetization 

 Free energy of the ion-electron system (eV)
  ---------------------------------------------------
  alpha Z        PSCENC =         0.24835683
  Ewald energy   TEWEN  =       129.55081153
  -Hartree energ DENC   =      -243.93140375
  -exchange      EXHF   =         0.00000000
  -V(xc)+E(xc)   XCENC  =        22.05506271
  PAW double counting   =       117.05815612     -117.66307307
  entropy T*S    EENTRO =        -0.00000000
  eigenvalues    EBANDS =      -132.02510426
  atomic energy  EATOM  =       197.04175453
  Solvation  Ediel_sol  =         0.00000000
  ---------------------------------------------------
  free energy    TOTEN  =       -27.66543936 eV

  energy without entropy =      -27.66543936  energy(sigma->0) =      -27.66543936


--------------------------------------------------------------------------------------------------------




--------------------------------------- Iteration      1(   5)  ---------------------------------------


     EDDAV:  cpu time    0.1999: real time    0.2014
       DOS:  cpu time    0.0005: real time    0.0005
    CHARGE:  cpu time    0.0231: real time    0.0232
    MIXING:  cpu time    0.0044: real time    0.0044
    --------------------------------------------
      LOOP:  cpu time    0.2279: real time    0.2296

 eigenvalue-minimisations  :    88
 total energy-change (2. order) :-0.5989463E-04  (-0.5989471E-04)
 number of electron       8.0000001 magnetization 
 augmentation part        0.2282995 magnetization 

 Broyden mixing:
  rms(total) = 0.88675E+00    rms(broyden)= 0.88656E+00
  rms(prec ) = 0.12668E+01
  weight for this iteration     100.00

 Free energy of the ion-electron system (eV)
  ---------------------------------------------------
  alpha Z        PSCENC =         0.24835683
  Ewald energy   TEWEN  =       129.55081153
  -Hartree energ DENC   =      -243.93140375
  -exchange      EXHF   =         0.00000000
  -V(xc)+E(xc)   XCENC  =        22.05506271
  PAW double counting   =       117.05815612     -117.66307307
  entropy T*S    EENTRO =        -0.00000000
  eigenvalues    EBANDS =      -132.02516415
  atomic energy  EATOM  =       197.04175453
  Solvation  Ediel_sol  =         0.00000000
  ---------------------------------------------------
  free energy    TOTEN  =       -27.66549926 eV

  energy without entropy =      -27.66549926  energy(sigma->0) =      -27.66549926


--------------------------------------------------------------------------------------------------------




--------------------------------------- Iteration      1(   6)  ---------------------------------------


    POTLOK:  cpu time    0.1510: real time    0.1519
    SETDIJ:  cpu time    0.0025: real time    0.0025
    EDDIAG:  cpu time    0.0455: real time    0.0459
  RMM-DIIS:  cpu time    0.2506: real time    0.2522
    ORTHCH:  cpu time    0.0018: real time    0.0018
       DOS:  cpu time    0.0002: real time    0.0002
    CHARGE:  cpu time    0.0206: real time    0.0208
    MIXING:  cpu time    0.0047: real time    0.0047
    --------------------------------------------
      LOOP:  cpu time    0.4769: real time    0.4801

 eigenvalue-minimisations  :    64
 total energy-change (2. order) : 0.2989062E+01  (-0.5592938E+00)
 number of electron       8.0000001 magnetization 
 augmentation part        0.2012236 magnetization 

 Broyden mixing:
  rms(total) = 0.43583E+00    rms(broyden)= 0.43575E+00
  rms(prec ) = 0.57037E+00
  weight for this iteration     100.00

 eigenvalues of (default mixing * dielectric matrix)
  average eigenvalue GAMMA=   1.3119
  1.3119

 Free energy of the ion-electron system (eV)
  ---------------------------------------------------
  alpha Z        PSCENC =         0.24835683
  Ewald energy   TEWEN  =       129.55081153
  -Hartree energ DENC   =      -263.98582265
  -exchange      EXHF   =         0.00000000
  -V(xc)+E(xc)   XCENC  =        23.27185093
  PAW double counting   =       241.14436678     -241.92867441
  entropy T*S    EENTRO =        -0.00000000
  eigenvalues    EBANDS =      -110.01908089
  atomic energy  EATOM  =       197.04175453
  Solvation  Ediel_sol  =         0.00000000
  ---------------------------------------------------
  free energy    TOTEN  =       -24.67643734 eV

  energy without entropy =      -24.67643734  energy(sigma->0) =      -24.67643734


--------------------------------------------------------------------------------------------------------




--------------------------------------- Iteration      1(   7)  ---------------------------------------


    POTLOK:  cpu time    0.1513: real time    0.1539
    SETDIJ:  cpu time    0.0022: real time    0.0022
    EDDIAG:  cpu time    0.0423: real time    0.0427
  RMM-DIIS:  cpu time    0.2490: real time    0.2504
    ORTHCH:  cpu time    0.0020: real time    0.0020
       DOS:  cpu time    0.0002: real time    0.0002
    CHARGE:  cpu time    0.0201: real time    0.0202
    MIXING:  cpu time    0.0048: real time    0.0048
    --------------------------------------------
      LOOP:  cpu time    0.4719: real time    0.4764

 eigenvalue-minimisations  :    64
 total energy-change (2. order) : 0.5110901E+00  (-0.1307935E+00)
 number of electron       8.0000000 magnetization 
 augmentation part        0.1903559 magnetization 

 Broyden mixing:
  rms(total) = 0.23064E+00    rms(broyden)= 0.23059E+00
  rms(prec ) = 0.27989E+00
  weight for this iteration     100.00

 eigenvalues of (default mixing * dielectric matrix)
  average eigenvalue GAMMA=   1.8453
  1.4684  2.2222

 Free energy of the ion-electron system (eV)
  ---------------------------------------------------
  alpha Z        PSCENC =         0.24835683
  Ewald energy   TEWEN  =       129.55081153
  -Hartree energ DENC   =      -276.00174799
  -exchange      EXHF   =         0.00000000
  -V(xc)+E(xc)   XCENC  =        24.15184053
  PAW double counting   =       372.92518649     -373.75152782
  entropy T*S    EENTRO =        -0.00000000
  eigenvalues    EBANDS =       -98.33002137
  atomic energy  EATOM  =       197.04175453
  Solvation  Ediel_sol  =         0.00000000
  ---------------------------------------------------
  free energy    TOTEN  =       -24.16534727 eV

  energy without entropy =      -24.16534727  energy(sigma->0) =      -24.16534727


--------------------------------------------------------------------------------------------------------




--------------------------------------- Iteration      1(   8)  ---------------------------------------


    POTLOK:  cpu time    0.1517: real time    0.1525
    SETDIJ:  cpu time    0.0024: real time    0.0024
    EDDIAG:  cpu time    0.0422: real time    0.0425
  RMM-DIIS:  cpu time    0.2474: real time    0.2492
    ORTHCH:  cpu time    0.0016: real time    0.0016
       DOS:  cpu time    0.0002: real time    0.0002
    CHARGE:  cpu time    0.0205: real time    0.0208
    MIXING:  cpu time    0.0048: real time    0.0048
    --------------------------------------------
      LOOP:  cpu time    0.4708: real time    0.4741

 eigenvalue-minimisations  :    64
 total energy-change (2. order) : 0.1477190E+00  (-0.1618732E-01)
 number of electron       8.0000000 magnetization 
 augmentation part        0.1889586 magnetization 

 Broyden mixing:
  rms(total) = 0.22428E-01    rms(broyden)= 0.22409E-01
  rms(prec ) = 0.53590E-01
  weight for this iteration     100.00

 eigenvalues of (default mixing * dielectric matrix)
  average eigenvalue GAMMA=   1.5540
  2.2484  0.9945  1.4190

 Free energy of the ion-electron system (eV)
  ---------------------------------------------------
  alpha Z        PSCENC =         0.24835683
  Ewald energy   TEWEN  =       129.55081153
  -Hartree energ DENC   =      -281.40034882
  -exchange      EXHF   =         0.00000000
  -V(xc)+E(xc)   XCENC  =        24.68791398
  PAW double counting   =       485.46196432     -486.25578186
  entropy T*S    EENTRO =        -0.00000000
  eigenvalues    EBANDS =       -93.35229875
  atomic energy  EATOM  =       197.04175453
  Solvation  Ediel_sol  =         0.00000000
  ---------------------------------------------------
  free energy    TOTEN  =       -24.01762825 eV

  energy without entropy =      -24.01762825  energy(sigma->0) =      -24.01762825


--------------------------------------------------------------------------------------------------------




--------------------------------------- Iteration      1(   9)  ---------------------------------------


    POTLOK:  cpu time    0.1510: real time    0.1524
    SETDIJ:  cpu time    0.0025: real time    0.0025
    EDDIAG:  cpu time    0.0425: real time    0.0435
  RMM-DIIS:  cpu time    0.2470: real time    0.2484
    ORTHCH:  cpu time    0.0016: real time    0.0016
       DOS:  cpu time    0.0002: real time    0.0002
    CHARGE:  cpu time    0.0200: real time    0.0201
    MIXING:  cpu time    0.0049: real time    0.0049
    --------------------------------------------
      LOOP:  cpu time    0.4696: real time    0.4737

 eigenvalue-minimisations  :    64
 total energy-change (2. order) : 0.5718791E-02  (-0.1127531E-02)
 number of electron       8.0000000 magnetization 
 augmentation part        0.1883775 magnetization 

 Broyden mixing:
  rms(total) = 0.19817E-01    rms(broyden)= 0.19813E-01
  rms(prec ) = 0.41205E-01
  weight for this iteration     100.00

 eigenvalues of (default mixing * dielectric matrix)
  average eigenvalue GAMMA=   2.1096
  3.1742  2.8764  1.0012  1.3865

 Free energy of the ion-electron system (eV)
  ---------------------------------------------------
  alpha Z        PSCENC =         0.24835683
  Ewald energy   TEWEN  =       129.55081153
  -Hartree energ DENC   =      -282.67975457
  -exchange      EXHF   =         0.00000000
  -V(xc)+E(xc)   XCENC  =        24.75934618
  PAW double counting   =       489.36096515     -490.15738692
  entropy T*S    EENTRO =        -0.00000000
  eigenvalues    EBANDS =       -92.13600218
  atomic energy  EATOM  =       197.04175453
  Solvation  Ediel_sol  =         0.00000000
  ---------------------------------------------------
  free energy    TOTEN  =       -24.01190946 eV

  energy without entropy =      -24.01190946  energy(sigma->0) =      -24.01190946


--------------------------------------------------------------------------------------------------------




--------------------------------------- Iteration      1(  10)  ---------------------------------------


    POTLOK:  cpu time    0.1463: real time    0.1480
    SETDIJ:  cpu time    0.0025: real time    0.0025
    EDDIAG:  cpu time    0.0421: real time    0.0424
  RMM-DIIS:  cpu time    0.2494: real time    0.2510
    ORTHCH:  cpu time    0.0017: real time    0.0017
       DOS:  cpu time    0.0002: real time    0.0002
    CHARGE:  cpu time    0.0202: real time    0.0204
    MIXING:  cpu time    0.0050: real time    0.0050
    --------------------------------------------
      LOOP:  cpu time    0.4675: real time    0.4712

 eigenvalue-minimisations  :    64
 total energy-change (2. order) : 0.5933338E-02  (-0.2429223E-02)
 number of electron       8.0000000 magnetization 
 augmentation part        0.1873272 magnetization 

 Broyden mixing:
  rms(total) = 0.28329E-01    rms(broyden)= 0.28328E-01
  rms(prec ) = 0.36076E-01
  weight for this iteration     100.00

 eigenvalues of (default mixing * dielectric matrix)
  average eigenvalue GAMMA=   1.7800
  3.0787  2.4555  1.1972  1.1972  0.9716

 Free energy of the ion-electron system (eV)
  ---------------------------------------------------
  alpha Z        PSCENC =         0.24835683
  Ewald energy   TEWEN  =       129.55081153
  -Hartree energ DENC   =      -284.88791592
  -exchange      EXHF   =         0.00000000
  -V(xc)+E(xc)   XCENC  =        24.82875873
  PAW double counting   =       472.68671038     -473.48679071
  entropy T*S    EENTRO =        -0.00000000
  eigenvalues    EBANDS =       -89.98766149
  atomic energy  EATOM  =       197.04175453
  Solvation  Ediel_sol  =         0.00000000
  ---------------------------------------------------
  free energy    TOTEN  =       -24.00597612 eV

  energy without entropy =      -24.00597612  energy(sigma->0) =      -24.00597612


--------------------------------------------------------------------------------------------------------




--------------------------------------- Iteration      1(  11)  ---------------------------------------


    POTLOK:  cpu time    0.1447: real time    0.1474
    SETDIJ:  cpu time    0.0023: real time    0.0023
    EDDIAG:  cpu time    0.0417: real time    0.0423
  RMM-DIIS:  cpu time    0.1640: real time    0.1660
    ORTHCH:  cpu time    0.0017: real time    0.0017
       DOS:  cpu time    0.0002: real time    0.0002
    CHARGE:  cpu time    0.0199: real time    0.0201
    MIXING:  cpu time    0.0050: real time    0.0050
    --------------------------------------------
      LOOP:  cpu time    0.3795: real time    0.3850

 eigenvalue-minimisations  :    64
 total energy-change (2. order) :-0.4999719E-03  (-0.6902730E-03)
 number of electron       8.0000000 magnetization 
 augmentation part        0.1876556 magnetization 

 Broyden mixing:
  rms(total) = 0.66756E-02    rms(broyden)= 0.66728E-02
  rms(prec ) = 0.13080E-01
  weight for this iteration     100.00

 eigenvalues of (default mixing * dielectric matrix)
  average eigenvalue GAMMA=   2.2890
  4.8654  3.1220  2.4339  1.3065  1.0031  1.0031

 Free energy of the ion-electron system (eV)
  ---------------------------------------------------
  alpha Z        PSCENC =         0.24835683
  Ewald energy   TEWEN  =       129.55081153
  -Hartree energ DENC   =      -284.78466131
  -exchange      EXHF   =         0.00000000
  -V(xc)+E(xc)   XCENC  =        24.84251785
  PAW double counting   =       481.92840934     -482.72132275
  entropy T*S    EENTRO =        -0.00000000
  eigenvalues    EBANDS =       -90.11234211
  atomic energy  EATOM  =       197.04175453
  Solvation  Ediel_sol  =         0.00000000
  ---------------------------------------------------
  free energy    TOTEN  =       -24.00647609 eV

  energy without entropy =      -24.00647609  energy(sigma->0) =      -24.00647609


--------------------------------------------------------------------------------------------------------




--------------------------------------- Iteration      1(  12)  ---------------------------------------


    POTLOK:  cpu time    0.1386: real time    0.1405
    SETDIJ:  cpu time    0.0020: real time    0.0020
    EDDIAG:  cpu time    0.0418: real time    0.0422
  RMM-DIIS:  cpu time    0.1641: real time    0.1653
    ORTHCH:  cpu time    0.0015: real time    0.0015
       DOS:  cpu time    0.0002: real time    0.0002
    CHARGE:  cpu time    0.0201: real time    0.0203
    MIXING:  cpu time    0.0054: real time    0.0054
    --------------------------------------------
      LOOP:  cpu time    0.3736: real time    0.3775

 eigenvalue-minimisations  :    64
 total energy-change (2. order) :-0.1005082E-01  (-0.4476867E-03)
 number of electron       8.0000000 magnetization 
 augmentation part        0.1879289 magnetization 

 Broyden mixing:
  rms(total) = 0.13258E-01    rms(broyden)= 0.13257E-01
  rms(prec ) = 0.17326E-01
  weight for this iteration     100.00

 eigenvalues of (default mixing * dielectric matrix)
  average eigenvalue GAMMA=   2.0235
  4.8430  2.9498  2.4410  1.2645  0.9921  0.9921  0.6817

 Free energy of the ion-electron system (eV)
  ---------------------------------------------------
  alpha Z        PSCENC =         0.24835683
  Ewald energy   TEWEN  =       129.55081153
  -Hartree energ DENC   =      -284.95824111
  -exchange      EXHF   =         0.00000000
  -V(xc)+E(xc)   XCENC  =        24.83440618
  PAW double counting   =       479.50117972     -480.29222382
  entropy T*S    EENTRO =        -0.00000000
  eigenvalues    EBANDS =       -89.94257078
  atomic energy  EATOM  =       197.04175453
  Solvation  Ediel_sol  =         0.00000000
  ---------------------------------------------------
  free energy    TOTEN  =       -24.01652691 eV

  energy without entropy =      -24.01652691  energy(sigma->0) =      -24.01652691


--------------------------------------------------------------------------------------------------------




--------------------------------------- Iteration      1(  13)  ---------------------------------------


    POTLOK:  cpu time    0.1363: real time    0.1382
    SETDIJ:  cpu time    0.0021: real time    0.0021
    EDDIAG:  cpu time    0.0413: real time    0.0417
  RMM-DIIS:  cpu time    0.1631: real time    0.1657
    ORTHCH:  cpu time    0.0015: real time    0.0015
       DOS:  cpu time    0.0002: real time    0.0002
    CHARGE:  cpu time    0.0200: real time    0.0201
    MIXING:  cpu time    0.0055: real time    0.0056
    --------------------------------------------
      LOOP:  cpu time    0.3701: real time    0.3751

 eigenvalue-minimisations  :    64
 total energy-change (2. order) :-0.3454326E-03  (-0.7990248E-04)
 number of electron       8.0000000 magnetization 
 augmentation part        0.1877158 magnetization 

 Broyden mixing:
  rms(total) = 0.63835E-02    rms(broyden)= 0.63834E-02
  rms(prec ) = 0.83812E-02
  weight for this iteration     100.00

 eigenvalues of (default mixing * dielectric matrix)
  average eigenvalue GAMMA=   2.4312
  6.1617  4.0727  2.5630  2.3507  1.2164  1.2164  1.0013  0.8675

 Free energy of the ion-electron system (eV)
  ---------------------------------------------------
  alpha Z        PSCENC =         0.24835683
  Ewald energy   TEWEN  =       129.55081153
  -Hartree energ DENC   =      -285.14218570
  -exchange      EXHF   =         0.00000000
  -V(xc)+E(xc)   XCENC  =        24.84004646
  PAW double counting   =       479.35295406     -480.14632460
  entropy T*S    EENTRO =        -0.00000000
  eigenvalues    EBANDS =       -89.76228545
  atomic energy  EATOM  =       197.04175453
  Solvation  Ediel_sol  =         0.00000000
  ---------------------------------------------------
  free energy    TOTEN  =       -24.01687234 eV

  energy without entropy =      -24.01687234  energy(sigma->0) =      -24.01687234


--------------------------------------------------------------------------------------------------------




--------------------------------------- Iteration      1(  14)  ---------------------------------------


    POTLOK:  cpu time    0.1345: real time    0.1373
    SETDIJ:  cpu time    0.0021: real time    0.0021
    EDDIAG:  cpu time    0.0422: real time    0.0425
  RMM-DIIS:  cpu time    0.1645: real time    0.1657
    ORTHCH:  cpu time    0.0015: real time    0.0015
       DOS:  cpu time    0.0002: real time    0.0002
    CHARGE:  cpu time    0.0198: real time    0.0200
    MIXING:  cpu time    0.0057: real time    0.0057
    --------------------------------------------
      LOOP:  cpu time    0.3705: real time    0.3749

 eigenvalue-minimisations  :    64
 total energy-change (2. order) :-0.2810740E-02  (-0.2215554E-03)
 number of electron       8.0000000 magnetization 
 augmentation part        0.1874853 magnetization 

 Broyden mixing:
  rms(total) = 0.48582E-02    rms(broyden)= 0.48564E-02
  rms(prec ) = 0.63399E-02
  weight for this iteration     100.00

 eigenvalues of (default mixing * dielectric matrix)
  average eigenvalue GAMMA=   2.3332
  6.5218  4.1923  2.4618  2.4618  1.1849  1.1849  0.9599  0.9599  1.0717

 Free energy of the ion-electron system (eV)
  ---------------------------------------------------
  alpha Z        PSCENC =         0.24835683
  Ewald energy   TEWEN  =       129.55081153
  -Hartree energ DENC   =      -285.20799426
  -exchange      EXHF   =         0.00000000
  -V(xc)+E(xc)   XCENC  =        24.83240812
  PAW double counting   =       478.27971277     -479.07543840
  entropy T*S    EENTRO =        -0.00000000
  eigenvalues    EBANDS =       -89.68929421
  atomic energy  EATOM  =       197.04175453
  Solvation  Ediel_sol  =         0.00000000
  ---------------------------------------------------
  free energy    TOTEN  =       -24.01968308 eV

  energy without entropy =      -24.01968308  energy(sigma->0) =      -24.01968308


--------------------------------------------------------------------------------------------------------




--------------------------------------- Iteration      1(  15)  ---------------------------------------


    POTLOK:  cpu time    0.1358: real time    0.1367
    SETDIJ:  cpu time    0.0020: real time    0.0021
    EDDIAG:  cpu time    0.0414: real time    0.0417
  RMM-DIIS:  cpu time    0.1629: real time    0.1644
    ORTHCH:  cpu time    0.0015: real time    0.0015
       DOS:  cpu time    0.0002: real time    0.0002
    CHARGE:  cpu time    0.0197: real time    0.0198
    MIXING:  cpu time    0.0059: real time    0.0059
    --------------------------------------------
      LOOP:  cpu time    0.3693: real time    0.3723

 eigenvalue-minimisations  :    64
 total energy-change (2. order) :-0.1764581E-03  (-0.1746875E-04)
 number of electron       8.0000000 magnetization 
 augmentation part        0.1875071 magnetization 

 Broyden mixing:
  rms(total) = 0.15497E-02    rms(broyden)= 0.15497E-02
  rms(prec ) = 0.19914E-02
  weight for this iteration     100.00

 eigenvalues of (default mixing * dielectric matrix)
  average eigenvalue GAMMA=   2.5689
  7.5272  4.9714  3.0989  2.5231  2.0703  1.2992  1.2992  1.0100  0.9995  0.8897

 Free energy of the ion-electron system (eV)
  ---------------------------------------------------
  alpha Z        PSCENC =         0.24835683
  Ewald energy   TEWEN  =       129.55081153
  -Hartree energ DENC   =      -285.11704361
  -exchange      EXHF   =         0.00000000
  -V(xc)+E(xc)   XCENC  =        24.82864491
  PAW double counting   =       478.42622218     -479.22063013
  entropy T*S    EENTRO =        -0.00000000
  eigenvalues    EBANDS =       -89.77797577
  atomic energy  EATOM  =       197.04175453
  Solvation  Ediel_sol  =         0.00000000
  ---------------------------------------------------
  free energy    TOTEN  =       -24.01985954 eV

  energy without entropy =      -24.01985954  energy(sigma->0) =      -24.01985954


--------------------------------------------------------------------------------------------------------




--------------------------------------- Iteration      1(  16)  ---------------------------------------


    POTLOK:  cpu time    0.1370: real time    0.1380
    SETDIJ:  cpu time    0.0023: real time    0.0023
    EDDIAG:  cpu time    0.0418: real time    0.0422
  RMM-DIIS:  cpu time    0.1640: real time    0.1660
    ORTHCH:  cpu time    0.0015: real time    0.0015
       DOS:  cpu time    0.0002: real time    0.0002
    CHARGE:  cpu time    0.0196: real time    0.0198
    MIXING:  cpu time    0.0060: real time    0.0061
    --------------------------------------------
      LOOP:  cpu time    0.3724: real time    0.3760

 eigenvalue-minimisations  :    64
 total energy-change (2. order) :-0.2064626E-03  (-0.1756240E-04)
 number of electron       8.0000000 magnetization 
 augmentation part        0.1875915 magnetization 

 Broyden mixing:
  rms(total) = 0.15487E-02    rms(broyden)= 0.15481E-02
  rms(prec ) = 0.20718E-02
  weight for this iteration     100.00

 eigenvalues of (default mixing * dielectric matrix)
  average eigenvalue GAMMA=   2.5001
  7.7277  4.7658  3.6757  2.3834  2.3834  1.2094  1.2094  0.8986  0.9802  1.1337
  1.1337

 Free energy of the ion-electron system (eV)
  ---------------------------------------------------
  alpha Z        PSCENC =         0.24835683
  Ewald energy   TEWEN  =       129.55081153
  -Hartree energ DENC   =      -285.09510797
  -exchange      EXHF   =         0.00000000
  -V(xc)+E(xc)   XCENC  =        24.82877784
  PAW double counting   =       478.57285071     -479.36658013
  entropy T*S    EENTRO =        -0.00000000
  eigenvalues    EBANDS =       -89.80092935
  atomic energy  EATOM  =       197.04175453
  Solvation  Ediel_sol  =         0.00000000
  ---------------------------------------------------
  free energy    TOTEN  =       -24.02006600 eV

  energy without entropy =      -24.02006600  energy(sigma->0) =      -24.02006600


--------------------------------------------------------------------------------------------------------




--------------------------------------- Iteration      1(  17)  ---------------------------------------


    POTLOK:  cpu time    0.1416: real time    0.1426
    SETDIJ:  cpu time    0.0023: real time    0.0023
    EDDIAG:  cpu time    0.0411: real time    0.0415
  RMM-DIIS:  cpu time    0.1680: real time    0.1695
    ORTHCH:  cpu time    0.0015: real time    0.0015
       DOS:  cpu time    0.0002: real time    0.0002
    CHARGE:  cpu time    0.0197: real time    0.0198
    MIXING:  cpu time    0.0063: real time    0.0063
    --------------------------------------------
      LOOP:  cpu time    0.3806: real time    0.3838

 eigenvalue-minimisations  :    64
 total energy-change (2. order) :-0.1183191E-04  (-0.3085532E-05)
 number of electron       8.0000000 magnetization 
 augmentation part        0.1875550 magnetization 

 Broyden mixing:
  rms(total) = 0.38411E-03    rms(broyden)= 0.38410E-03
  rms(prec ) = 0.46811E-03
  weight for this iteration     100.00

 eigenvalues of (default mixing * dielectric matrix)
  average eigenvalue GAMMA=   2.5733
  8.3184  5.1010  4.0332  2.6275  2.4790  1.8519  1.3295  1.3295  1.0136  0.9776
  0.9522  0.8669

 Free energy of the ion-electron system (eV)
  ---------------------------------------------------
  alpha Z        PSCENC =         0.24835683
  Ewald energy   TEWEN  =       129.55081153
  -Hartree energ DENC   =      -285.14100731
  -exchange      EXHF   =         0.00000000
  -V(xc)+E(xc)   XCENC  =        24.83096650
  PAW double counting   =       478.58697121     -479.38112986
  entropy T*S    EENTRO =        -0.00000000
  eigenvalues    EBANDS =       -89.75680126
  atomic energy  EATOM  =       197.04175453
  Solvation  Ediel_sol  =         0.00000000
  ---------------------------------------------------
  free energy    TOTEN  =       -24.02007784 eV

  energy without entropy =      -24.02007784  energy(sigma->0) =      -24.02007784


--------------------------------------------------------------------------------------------------------




--------------------------------------- Iteration      1(  18)  ---------------------------------------


    POTLOK:  cpu time    0.1393: real time    0.1431
    SETDIJ:  cpu time    0.0021: real time    0.0021
    EDDIAG:  cpu time    0.0410: real time    0.0413
  RMM-DIIS:  cpu time    0.1546: real time    0.1600
    ORTHCH:  cpu time    0.0019: real time    0.0019
       DOS:  cpu time    0.0002: real time    0.0002
    CHARGE:  cpu time    0.0196: real time    0.0198
    MIXING:  cpu time    0.0064: real time    0.0064
    --------------------------------------------
      LOOP:  cpu time    0.3650: real time    0.3748

 eigenvalue-minimisations  :    60
 total energy-change (2. order) :-0.1670078E-04  (-0.5986566E-06)
 number of electron       8.0000000 magnetization 
 augmentation part        0.1875373 magnetization 

 Broyden mixing:
  rms(total) = 0.13443E-03    rms(broyden)= 0.13416E-03
  rms(prec ) = 0.19358E-03
  weight for this iteration     100.00

 eigenvalues of (default mixing * dielectric matrix)
  average eigenvalue GAMMA=   2.5002
  8.3324  5.2493  3.9151  2.6518  2.5505  2.0001  1.2987  1.2987  0.8914  0.9946
  0.9946  1.1624  1.1624

 Free energy of the ion-electron system (eV)
  ---------------------------------------------------
  alpha Z        PSCENC =         0.24835683
  Ewald energy   TEWEN  =       129.55081153
  -Hartree energ DENC   =      -285.14135411
  -exchange      EXHF   =         0.00000000
  -V(xc)+E(xc)   XCENC  =        24.83066961
  PAW double counting   =       478.45929204     -479.25354659
  entropy T*S    EENTRO =        -0.00000000
  eigenvalues    EBANDS =       -89.75607838
  atomic energy  EATOM  =       197.04175453
  Solvation  Ediel_sol  =         0.00000000
  ---------------------------------------------------
  free energy    TOTEN  =       -24.02009454 eV

  energy without entropy =      -24.02009454  energy(sigma->0) =      -24.02009454


--------------------------------------------------------------------------------------------------------




--------------------------------------- Iteration      1(  19)  ---------------------------------------


    POTLOK:  cpu time    0.1415: real time    0.1425
    SETDIJ:  cpu time    0.0020: real time    0.0024
    EDDIAG:  cpu time    0.0409: real time    0.0413
  RMM-DIIS:  cpu time    0.1734: real time    0.1751
    ORTHCH:  cpu time    0.0015: real time    0.0015
       DOS:  cpu time    0.0002: real time    0.0002
    CHARGE:  cpu time    0.0198: real time    0.0199
    MIXING:  cpu time    0.0067: real time    0.0068
    --------------------------------------------
      LOOP:  cpu time    0.3860: real time    0.3897

 eigenvalue-minimisations  :    48
 total energy-change (2. order) :-0.1873232E-05  (-0.2799742E-07)
 number of electron       8.0000000 magnetization 
 augmentation part        0.1875376 magnetization 

 Broyden mixing:
  rms(total) = 0.10895E-03    rms(broyden)= 0.10893E-03
  rms(prec ) = 0.15000E-03
  weight for this iteration     100.00

 eigenvalues of (default mixing * dielectric matrix)
  average eigenvalue GAMMA=   2.5591
  8.3785  5.5387  3.8460  3.8460  2.4500  2.4500  1.8181  1.3352  1.3352  1.0149
  0.9999  0.9999  0.9072  0.9072

 Free energy of the ion-electron system (eV)
  ---------------------------------------------------
  alpha Z        PSCENC =         0.24835683
  Ewald energy   TEWEN  =       129.55081153
  -Hartree energ DENC   =      -285.13814341
  -exchange      EXHF   =         0.00000000
  -V(xc)+E(xc)   XCENC  =        24.83047412
  PAW double counting   =       478.45209207     -479.24632085
  entropy T*S    EENTRO =        -0.00000000
  eigenvalues    EBANDS =       -89.75912123
  atomic energy  EATOM  =       197.04175453
  Solvation  Ediel_sol  =         0.00000000
  ---------------------------------------------------
  free energy    TOTEN  =       -24.02009641 eV

  energy without entropy =      -24.02009641  energy(sigma->0) =      -24.02009641


--------------------------------------------------------------------------------------------------------




--------------------------------------- Iteration      1(  20)  ---------------------------------------


    POTLOK:  cpu time    0.1453: real time    0.1463
    SETDIJ:  cpu time    0.0021: real time    0.0021
    EDDIAG:  cpu time    0.0410: real time    0.0413
  RMM-DIIS:  cpu time    0.1362: real time    0.1373
    ORTHCH:  cpu time    0.0015: real time    0.0015
       DOS:  cpu time    0.0002: real time    0.0002
    CHARGE:  cpu time    0.0197: real time    0.0199
    MIXING:  cpu time    0.0067: real time    0.0067
    --------------------------------------------
      LOOP:  cpu time    0.3528: real time    0.3554

 eigenvalue-minimisations  :    48
 total energy-change (2. order) :-0.1875620E-05  (-0.2102849E-07)
 number of electron       8.0000000 magnetization 
 augmentation part        0.1875405 magnetization 

 Broyden mixing:
  rms(total) = 0.43637E-04    rms(broyden)= 0.43633E-04
  rms(prec ) = 0.50403E-04
  weight for this iteration     100.00

 eigenvalues of (default mixing * dielectric matrix)
  average eigenvalue GAMMA=   2.4653
  8.3833  5.5522  3.8251  3.8251  2.4681  2.4681  1.8174  1.3432  1.3432  0.8734
  1.0484  0.9560  0.9560  1.0599  1.0599

 Free energy of the ion-electron system (eV)
  ---------------------------------------------------
  alpha Z        PSCENC =         0.24835683
  Ewald energy   TEWEN  =       129.55081153
  -Hartree energ DENC   =      -285.13412041
  -exchange      EXHF   =         0.00000000
  -V(xc)+E(xc)   XCENC  =        24.83024134
  PAW double counting   =       478.45155570     -479.24574424
  entropy T*S    EENTRO =        -0.00000000
  eigenvalues    EBANDS =       -89.76295356
  atomic energy  EATOM  =       197.04175453
  Solvation  Ediel_sol  =         0.00000000
  ---------------------------------------------------
  free energy    TOTEN  =       -24.02009829 eV

  energy without entropy =      -24.02009829  energy(sigma->0) =      -24.02009829


--------------------------------------------------------------------------------------------------------




--------------------------------------- Iteration      1(  21)  ---------------------------------------


    POTLOK:  cpu time    0.1466: real time    0.1479
    SETDIJ:  cpu time    0.0022: real time    0.0022
    EDDIAG:  cpu time    0.0418: real time    0.0421
  RMM-DIIS:  cpu time    0.1126: real time    0.1140
    ORTHCH:  cpu time    0.0018: real time    0.0018
       DOS:  cpu time    0.0002: real time    0.0002
    --------------------------------------------
      LOOP:  cpu time    0.3051: real time    0.3081

 eigenvalue-minimisations  :    32
 total energy-change (2. order) :-0.1002936E-06  ( 0.0000000E+00)
 number of electron       8.0000000 magnetization 
 augmentation part        0.1875405 magnetization 

 Free energy of the ion-electron system (eV)
  ---------------------------------------------------
  alpha Z        PSCENC =         0.24835683
  Ewald energy   TEWEN  =       129.55081153
  -Hartree energ DENC   =      -285.13453465
  -exchange      EXHF   =         0.00000000
  -V(xc)+E(xc)   XCENC  =        24.83028450
  PAW double counting   =       478.45813790     -479.25232365
  entropy T*S    EENTRO =        -0.00000000
  eigenvalues    EBANDS =       -89.76258537
  atomic energy  EATOM  =       197.04175453
  Solvation  Ediel_sol  =         0.00000000
  ---------------------------------------------------
  free energy    TOTEN  =       -24.02009839 eV

  energy without entropy =      -24.02009839  energy(sigma->0) =      -24.02009839


--------------------------------------------------------------------------------------------------------




 average (electrostatic) potential at core
  the test charge radii are     0.5201  0.6991
  (the norm of the test charge is              1.0000)
       1 -41.5259       2 -41.5414       3 -41.4774       4 -41.6191       5 -57.9086
 
 
 
 E-fermi :  -8.3259     XC(G=0):  -0.7129     alpha+bet : -0.2160


 k-point     1 :       0.2500    0.2500    0.2500
  band No.  band energies     occupation 
      1     -16.9407      2.00000
      2      -9.4037      2.00000
      3      -9.2768      2.00000
      4      -9.2604      2.00000
      5      -0.3060      0.00000
      6       0.5926      0.00000
      7       0.6958      0.00000
      8       0.7218      0.00000

 k-point     2 :      -0.2500    0.2500    0.2500
  band No.  band energies     occupation 
      1     -16.9407      2.00000
      2      -9.4036      2.00000
      3      -9.2766      2.00000
      4      -9.2603      2.00000
      5      -0.3016      0.00000
      6       0.5791      0.00000
      7       0.6819      0.00000
      8       0.7138      0.00000

 k-point     3 :       0.2500   -0.2500    0.2500
  band No.  band energies     occupation 
      1     -16.9407      2.00000
      2      -9.4036      2.00000
      3      -9.2766      2.00000
      4      -9.2603      2.00000
      5      -0.2990      0.00000
      6       0.5747      0.00000
      7       0.6787      0.00000
      8       0.7051      0.00000

 k-point     4 :      -0.2500   -0.2500    0.2500
  band No.  band energies     occupation 
      1     -16.9407      2.00000
      2      -9.4036      2.00000
      3      -9.2767      2.00000
      4      -9.2603      2.00000
      5      -0.2998      0.00000
      6       0.5801      0.00000
      7       0.6835      0.00000
      8       0.7036      0.00000


--------------------------------------------------------------------------------------------------------


 soft charge-density along one line, spin component           1
         0         1         2         3         4         5         6         7         8         9
 total charge-density along one line
 
 pseudopotential strength for first ion, spin component:           1
 -2.341  -4.034  -0.001  -0.001   0.001
 -4.034  -6.866  -0.003  -0.004   0.002
 -0.001  -0.003  -0.337   0.002  -0.001
 -0.001  -0.004   0.002  -0.336  -0.001
  0.001   0.002  -0.001  -0.001  -0.338
 total augmentation occupancy for first ion, spin component:           1
  3.564  -0.641   0.247   0.335  -0.131
 -0.641   0.129  -0.045  -0.062   0.024
  0.247  -0.045   0.023   0.019  -0.008
  0.335  -0.062   0.019   0.036  -0.010
 -0.131   0.024  -0.008  -0.010   0.013


------------------------ aborting loop because EDIFF is reached ----------------------------------------


    CHARGE:  cpu time    0.0199: real time    0.0200
    FORLOC:  cpu time    0.0133: real time    0.0134
    FORNL :  cpu time    0.0196: real time    0.0197
    STRESS:  cpu time    0.1489: real time    0.1502
    FORCOR:  cpu time    0.1448: real time    0.1456
    FORHAR:  cpu time    0.0449: real time    0.0452
    MIXING:  cpu time    0.0069: real time    0.0069
    OFIELD:  cpu time    0.0001: real time    0.0001

  FORCE on cell =-STRESS in cart. coord.  units (eV):
  Direction    XX          YY          ZZ          XY          YZ          ZX
  --------------------------------------------------------------------------------------
  Alpha Z     0.24836     0.24836     0.24836
  Ewald      42.77036    42.32566    44.45474     0.88046     1.31863     1.15442
  Hartree    94.81314    94.84427    95.47700     0.48365     0.70876     0.34300
  E(xc)     -27.30692   -27.30766   -27.30441     0.00567     0.00766     0.00432
  Local    -196.30222  -196.06164  -198.30909    -1.31850    -1.94205    -1.26411
  n-local   -16.09735   -16.07527   -16.11934     0.01775     0.02598    -0.01163
  augment     0.11243     0.11415     0.10904     0.00013     0.00003    -0.00202
  Kinetic   101.75273   101.76558   101.62647    -0.28426    -0.39638    -0.19777
  Fock        0.00000     0.00000     0.00000     0.00000     0.00000     0.00000
  -------------------------------------------------------------------------------------
  Total      -0.00948    -0.14656     0.18276    -0.21508    -0.27737     0.02623
  in kB      -0.01557    -0.24073     0.30020    -0.35329    -0.45560     0.04308
  external pressure =        0.01 kB  Pullay stress =        0.00 kB

  kinetic pressure (ideal gas correction) =      0.00 kB
  total pressure  =      0.01 kB
  Total+kin.    -0.016      -0.241       0.300      -0.353      -0.456       0.043

 VOLUME and BASIS-vectors are now :
 -----------------------------------------------------------------------------
  energy-cutoff  :      400.00
  volume of cell :      975.41
      direct lattice vectors                 reciprocal lattice vectors
     9.934006436  0.000000000  0.000000000     0.100664320 -0.001384305 -0.000820955
     0.136544507  9.929285797  0.000000000     0.000000000  0.100712178 -0.002220511
     0.083645753  0.218030638  9.888869673     0.000000000  0.000000000  0.101123792

  length of vectors
     9.934006436  9.930224612  9.891626629     0.100677185  0.100736654  0.101123792


 FORCES acting on ions
    electron-ion (+dipol)            ewald-force                    non-local-force                 convergence-correction
 -----------------------------------------------------------------------------------------------
   -.161E+02 0.300E+02 0.409E+02   0.179E+02 -.332E+02 -.453E+02   -.166E+01 0.315E+01 0.429E+01   -.164E-04 0.336E-04 0.489E-04
   0.528E+02 -.650E+01 0.336E+01   -.587E+02 0.727E+01 -.371E+01   0.557E+01 -.668E+00 0.355E+00   0.580E-04 -.588E-05 0.606E-05
   -.241E+02 -.471E+02 0.117E+01   0.266E+02 0.520E+02 -.137E+01   -.250E+01 -.488E+01 0.913E-01   -.290E-04 -.540E-04 0.367E-06
   -.121E+02 0.241E+02 -.465E+02   0.135E+02 -.270E+02 0.521E+02   -.130E+01 0.256E+01 -.500E+01   -.144E-04 0.247E-04 -.529E-04
   -.606E+00 -.765E+00 0.146E+01   0.678E+00 0.946E+00 -.170E+01   -.236E-01 0.139E+00 -.463E-01   -.489E-05 0.921E-06 0.959E-05
 -----------------------------------------------------------------------------------------------
   -.816E-01 -.299E+00 0.314E+00   -.178E-14 -.355E-14 0.000E+00   0.812E-01 0.299E+00 -.314E+00   -.660E-05 -.635E-06 0.120E-04
 
 
 POSITION                                       TOTAL-FORCE (eV/Angst)
 -----------------------------------------------------------------------------------
      5.43090      4.11787      3.56512         0.140165     -0.073587     -0.115985
      4.02382      4.86615      4.33596        -0.294174      0.103093      0.002469
      5.60132      5.71066      4.38071        -0.028568      0.010630     -0.110115
      5.34410      4.25218      5.33761         0.133646     -0.359711      0.509779
      5.10178      4.73421      4.40354         0.048524      0.319259     -0.286079
 -----------------------------------------------------------------------------------
    total drift:                               -0.000406     -0.000315      0.000069


--------------------------------------------------------------------------------------------------------



  FREE ENERGIE OF THE ION-ELECTRON SYSTEM (eV)
  ---------------------------------------------------
  free  energy   TOTEN  =       -24.02009839 eV

  energy  without entropy=      -24.02009839  energy(sigma->0) =      -24.02009839
 


--------------------------------------------------------------------------------------------------------


    POTLOK:  cpu time    0.1503: real time    0.1511


--------------------------------------------------------------------------------------------------------


           RANDOM_SEED =         172264910                0                0
           RANDOM_SEED =         172264910               30                0
   IONSTEP:  cpu time    0.0026: real time    0.0026

  ENERGY OF THE ELECTRON-ION-THERMOSTAT SYSTEM (eV)
  ---------------------------------------------------
% ion-electron   TOTEN  =       -24.020098  see above
  kinetic energy EKIN   =         0.000169
  kin. lattice  EKIN_LAT=         0.000000  (temperature    0.33 K)
  nose potential ES     =         0.000000
  nose kinetic   EPS    =         0.000000
  ---------------------------------------------------
  total energy   ETOTAL =       -24.019930 eV

  maximum distance moved by ions :      0.16E-03

    WAVPRE:  cpu time    0.0434: real time    0.0438
    FEWALD:  cpu time    0.0003: real time    0.0003
    ORTHCH:  cpu time    0.0085: real time    0.0085
     LOOP+:  cpu time    8.1833: real time    8.2676


--------------------------------------- Iteration      2(   1)  ---------------------------------------


    POTLOK:  cpu time    0.1506: real time    0.1516
    SETDIJ:  cpu time    0.0021: real time    0.0024
     EDDAV:  cpu time    0.1533: real time    0.1545
       DOS:  cpu time    0.0002: real time    0.0002
    CHARGE:  cpu time    0.0196: real time    0.0198
    MIXING:  cpu time    0.0062: real time    0.0063
    --------------------------------------------
      LOOP:  cpu time    0.3322: real time    0.3348

 eigenvalue-minimisations  :    64
 total energy-change (2. order) :-0.1322991E-02  (-0.1542417E-03)
 number of electron       8.0000001 magnetization 
 augmentation part        0.1873042 magnetization 

 Broyden mixing:
  rms(total) = 0.20309E-02    rms(broyden)= 0.20299E-02
  rms(prec ) = 0.26006E-02
  weight for this iteration     100.00

 Free energy of the ion-electron system (eV)
  ---------------------------------------------------
  alpha Z        PSCENC =         0.24835683
  Ewald energy   TEWEN  =       129.39171821
  -Hartree energ DENC   =      -285.04389502
  -exchange      EXHF   =         0.00000000
  -V(xc)+E(xc)   XCENC  =        24.82572008
  PAW double counting   =       478.46935866     -479.26353616
  entropy T*S    EENTRO =        -0.00000000
  eigenvalues    EBANDS =       -89.69089841
  atomic energy  EATOM  =       197.04175453
  Solvation  Ediel_sol  =         0.00000000
  ---------------------------------------------------
  free energy    TOTEN  =       -24.02142128 eV

  energy without entropy =      -24.02142128  energy(sigma->0) =      -24.02142128


--------------------------------------------------------------------------------------------------------




--------------------------------------- Iteration      2(   2)  ---------------------------------------


    POTLOK:  cpu time    0.1503: real time    0.1518
    SETDIJ:  cpu time    0.0022: real time    0.0022
    EDDIAG:  cpu time    0.0409: real time    0.0412
  RMM-DIIS:  cpu time    0.1643: real time    0.1680
    ORTHCH:  cpu time    0.0015: real time    0.0015
       DOS:  cpu time    0.0002: real time    0.0002
    CHARGE:  cpu time    0.0200: real time    0.0202
    MIXING:  cpu time    0.0045: real time    0.0046
    --------------------------------------------
      LOOP:  cpu time    0.3838: real time    0.3896

 eigenvalue-minimisations  :    64
 total energy-change (2. order) : 0.9462791E-05  (-0.3654339E-05)
 number of electron       8.0000001 magnetization 
 augmentation part        0.1873211 magnetization 

 Broyden mixing:
  rms(total) = 0.10357E-02    rms(broyden)= 0.10355E-02
  rms(prec ) = 0.12720E-02
  weight for this iteration     100.00

 eigenvalues of (default mixing * dielectric matrix)
  average eigenvalue GAMMA=   1.8176
  1.8176

 Free energy of the ion-electron system (eV)
  ---------------------------------------------------
  alpha Z        PSCENC =         0.24835683
  Ewald energy   TEWEN  =       129.39171821
  -Hartree energ DENC   =      -285.01302709
  -exchange      EXHF   =         0.00000000
  -V(xc)+E(xc)   XCENC  =        24.82401659
  PAW double counting   =       478.00334351     -478.79716888
  entropy T*S    EENTRO =        -0.00000000
  eigenvalues    EBANDS =       -89.72040550
  atomic energy  EATOM  =       197.04175453
  Solvation  Ediel_sol  =         0.00000000
  ---------------------------------------------------
  free energy    TOTEN  =       -24.02141181 eV

  energy without entropy =      -24.02141181  energy(sigma->0) =      -24.02141181


--------------------------------------------------------------------------------------------------------




--------------------------------------- Iteration      2(   3)  ---------------------------------------


    POTLOK:  cpu time    0.1421: real time    0.1440
    SETDIJ:  cpu time    0.0024: real time    0.0024
    EDDIAG:  cpu time    0.0409: real time    0.0412
  RMM-DIIS:  cpu time    0.1622: real time    0.1635
    ORTHCH:  cpu time    0.0016: real time    0.0016
       DOS:  cpu time    0.0002: real time    0.0002
    CHARGE:  cpu time    0.0199: real time    0.0200
    MIXING:  cpu time    0.0046: real time    0.0046
    --------------------------------------------
      LOOP:  cpu time    0.3737: real time    0.3774

 eigenvalue-minimisations  :    64
 total energy-change (2. order) : 0.1129085E-05  (-0.2138692E-05)
 number of electron       8.0000001 magnetization 
 augmentation part        0.1873581 magnetization 

 Broyden mixing:
  rms(total) = 0.40061E-03    rms(broyden)= 0.40034E-03
  rms(prec ) = 0.49505E-03
  weight for this iteration     100.00

 eigenvalues of (default mixing * dielectric matrix)
  average eigenvalue GAMMA=   1.3019
  0.9036  1.7002

 Free energy of the ion-electron system (eV)
  ---------------------------------------------------
  alpha Z        PSCENC =         0.24835683
  Ewald energy   TEWEN  =       129.39171821
  -Hartree energ DENC   =      -284.99055271
  -exchange      EXHF   =         0.00000000
  -V(xc)+E(xc)   XCENC  =        24.82276907
  PAW double counting   =       477.60863283     -478.40216304
  entropy T*S    EENTRO =        -0.00000000
  eigenvalues    EBANDS =       -89.74192640
  atomic energy  EATOM  =       197.04175453
  Solvation  Ediel_sol  =         0.00000000
  ---------------------------------------------------
  free energy    TOTEN  =       -24.02141068 eV

  energy without entropy =      -24.02141068  energy(sigma->0) =      -24.02141068


--------------------------------------------------------------------------------------------------------




--------------------------------------- Iteration      2(   4)  ---------------------------------------


    POTLOK:  cpu time    0.2077: real time    0.2091
    SETDIJ:  cpu time    0.0030: real time    0.0030
    EDDIAG:  cpu time    0.0533: real time    0.0537
  RMM-DIIS:  cpu time    0.1346: real time    0.1361
    ORTHCH:  cpu time    0.0015: real time    0.0015
       DOS:  cpu time    0.0002: real time    0.0002
    --------------------------------------------
      LOOP:  cpu time    0.4002: real time    0.4035

 eigenvalue-minimisations  :    48
 total energy-change (2. order) : 0.2250933E-06  (-0.4235152E-07)
 number of electron       8.0000001 magnetization 
 augmentation part        0.1873581 magnetization 

 Free energy of the ion-electron system (eV)
  ---------------------------------------------------
  alpha Z        PSCENC =         0.24835683
  Ewald energy   TEWEN  =       129.39171821
  -Hartree energ DENC   =      -284.99592365
  -exchange      EXHF   =         0.00000000
  -V(xc)+E(xc)   XCENC  =        24.82300626
  PAW double counting   =       477.59212509     -478.38572475
  entropy T*S    EENTRO =        -0.00000000
  eigenvalues    EBANDS =       -89.73672298
  atomic energy  EATOM  =       197.04175453
  Solvation  Ediel_sol  =         0.00000000
  ---------------------------------------------------
  free energy    TOTEN  =       -24.02141046 eV

  energy without entropy =      -24.02141046  energy(sigma->0) =      -24.02141046


--------------------------------------------------------------------------------------------------------




 average (electrostatic) potential at core
  the test charge radii are     0.5201  0.6991
  (the norm of the test charge is              1.0000)
       1 -41.5232       2 -41.5362       3 -41.4784       4 -41.6065       5 -57.9132
 
 
 
 E-fermi :  -8.3162     XC(G=0):  -0.6916     alpha+bet : -0.2160


 k-point     1 :       0.2500    0.2500    0.2500
  band No.  band energies     occupation 
      1     -16.9356      2.00000
      2      -9.3987      2.00000
      3      -9.2754      2.00000
      4      -9.2590      2.00000
      5      -0.2992      0.00000
      6       0.6123      0.00000
      7       0.7075      0.00000
      8       0.7363      0.00000

 k-point     2 :      -0.2500    0.2500    0.2500
  band No.  band energies     occupation 
      1     -16.9355      2.00000
      2      -9.3986      2.00000
      3      -9.2753      2.00000
      4      -9.2589      2.00000
      5      -0.2949      0.00000
      6       0.5978      0.00000
      7       0.6948      0.00000
      8       0.7287      0.00000

 k-point     3 :       0.2500   -0.2500    0.2500
  band No.  band energies     occupation 
      1     -16.9355      2.00000
      2      -9.3986      2.00000
      3      -9.2753      2.00000
      4      -9.2589      2.00000
      5      -0.2923      0.00000
      6       0.5922      0.00000
      7       0.6927      0.00000
      8       0.7204      0.00000

 k-point     4 :      -0.2500   -0.2500    0.2500
  band No.  band energies     occupation 
      1     -16.9355      2.00000
      2      -9.3986      2.00000
      3      -9.2753      2.00000
      4      -9.2588      2.00000
      5      -0.2932      0.00000
      6       0.5987      0.00000
      7       0.6966      0.00000
      8       0.7185      0.00000


--------------------------------------------------------------------------------------------------------


 soft charge-density along one line, spin component           1
         0         1         2         3         4         5         6         7         8         9
 total charge-density along one line
 
 pseudopotential strength for first ion, spin component:           1
 -2.341  -4.034  -0.001  -0.001   0.001
 -4.034  -6.866  -0.003  -0.004   0.002
 -0.001  -0.003  -0.337   0.002  -0.001
 -0.001  -0.004   0.002  -0.336  -0.001
  0.001   0.002  -0.001  -0.001  -0.338
 total augmentation occupancy for first ion, spin component:           1
  3.563  -0.641   0.246   0.335  -0.131
 -0.641   0.129  -0.045  -0.062   0.024
  0.246  -0.045   0.023   0.019  -0.008
  0.335  -0.062   0.019   0.035  -0.010
 -0.131   0.024  -0.008  -0.010   0.013


------------------------ aborting loop because EDIFF is reached ----------------------------------------


    CHARGE:  cpu time    0.0201: real time    0.0203
    FORLOC:  cpu time    0.0138: real time    0.0141
    FORNL :  cpu time    0.0198: real time    0.0199
    STRESS:  cpu time    0.1501: real time    0.1507
    FORCOR:  cpu time    0.1459: real time    0.1475
    FORHAR:  cpu time    0.0484: real time    0.0487
    MIXING:  cpu time    0.0060: real time    0.0060
    OFIELD:  cpu time    0.0000: real time    0.0000

  FORCE on cell =-STRESS in cart. coord.  units (eV):
  Direction    XX          YY          ZZ          XY          YZ          ZX
  --------------------------------------------------------------------------------------
  Alpha Z     0.24836     0.24836     0.24836
  Ewald      42.72257    42.30734    44.36177     0.88069     1.31927     1.12044
  Hartree    94.76850    94.79667    95.43719     0.47473     0.69717     0.34030
  E(xc)     -27.29909   -27.29987   -27.29650     0.00549     0.00742     0.00428
  Local    -196.21631  -195.98904  -198.20388    -1.30316    -1.92202    -1.23870
  n-local   -16.08117   -16.06070   -16.10087     0.01635     0.02415    -0.01061
  augment     0.11270     0.11427     0.10956     0.00004    -0.00010    -0.00190
  Kinetic   101.70748   101.72278   101.57737    -0.27523    -0.38448    -0.19568
  Fock        0.00000     0.00000     0.00000     0.00000     0.00000     0.00000
  -------------------------------------------------------------------------------------
  Total      -0.03696    -0.16020     0.13300    -0.20110    -0.25859     0.01813
  in kB      -0.06070    -0.26313     0.21846    -0.33031    -0.42474     0.02978
  external pressure =       -0.04 kB  Pullay stress =        0.00 kB

  kinetic pressure (ideal gas correction) =      0.00 kB
  total pressure  =     -0.03 kB
  Total+kin.    -0.060      -0.263       0.220      -0.331      -0.425       0.030

 VOLUME and BASIS-vectors are now :
 -----------------------------------------------------------------------------
  energy-cutoff  :      400.00
[...]
 -----------------------------------------------------------------------------------------------
   0.775E-01 0.243E+00 -.276E+00   -.708E-14 0.000E+00 0.000E+00   -.779E-01 -.244E+00 0.276E+00   0.193E-03 0.191E-03 -.219E-03
 
 
 POSITION                                       TOTAL-FORCE (eV/Angst)
 -----------------------------------------------------------------------------------
      5.44043      4.11442      3.55939        -0.008085      0.074280      0.107063
      4.00849      4.87300      4.33671         0.218112     -0.011173      0.022633
      5.59941      5.71191      4.37234         0.000331      0.014921     -0.036312
      5.35063      4.23191      5.36250        -0.106087      0.178868     -0.413422
      5.10188      4.73551      4.40258        -0.104505     -0.257202      0.320127
 -----------------------------------------------------------------------------------
    total drift:                               -0.000236     -0.000306      0.000089


--------------------------------------------------------------------------------------------------------



  FREE ENERGIE OF THE ION-ELECTRON SYSTEM (eV)
  ---------------------------------------------------
  free  energy   TOTEN  =       -24.02480654 eV

  energy  without entropy=      -24.02480654  energy(sigma->0) =      -24.02480654
 
 d Force =-0.1890475E-02[-0.224E-02,-0.154E-02]  d Energy =-0.1894502E-02 0.403E-05
 d Force = 0.4135553E+00[ 0.413E+00, 0.414E+00]  d Ewald  = 0.4135541E+00 0.113E-05


--------------------------------------------------------------------------------------------------------


    POTLOK:  cpu time    0.1478: real time    0.1479


--------------------------------------------------------------------------------------------------------


           RANDOM_SEED =         172264910               30                0
   IONSTEP:  cpu time    0.0001: real time    0.0001

  ENERGY OF THE ELECTRON-ION-THERMOSTAT SYSTEM (eV)
  ---------------------------------------------------
% ion-electron   TOTEN  =       -24.024807  see above
  kinetic energy EKIN   =         0.004818
  kin. lattice  EKIN_LAT=         0.000000  (temperature    9.32 K)
  nose potential ES     =         0.000000
  nose kinetic   EPS    =         0.000000
  ---------------------------------------------------
  total energy   ETOTAL =       -24.019989 eV

  maximum distance moved by ions :      0.31E-03

    WAVPRE:  cpu time    0.0508: real time    0.0513
    FEWALD:  cpu time    0.0005: real time    0.0005
    ORTHCH:  cpu time    0.0085: real time    0.0085
 Prediction of Wavefunctions ALPHA= 2.157 BETA=-1.192
     LOOP+:  cpu time    1.9945: real time    2.0066


--------------------------------------- Iteration     10(   1)  ---------------------------------------


    POTLOK:  cpu time    0.1503: real time    0.1505
    SETDIJ:  cpu time    0.0021: real time    0.0021
     EDDAV:  cpu time    0.1724: real time    0.1730
       DOS:  cpu time    0.0002: real time    0.0002
    CHARGE:  cpu time    0.0194: real time    0.0195
    MIXING:  cpu time    0.0052: real time    0.0055
    --------------------------------------------
      LOOP:  cpu time    0.3498: real time    0.3509

 eigenvalue-minimisations  :    72
 total energy-change (2. order) : 0.1729938E-02  (-0.1297271E-04)
 number of electron       8.0000003 magnetization 
 augmentation part        0.1831656 magnetization 

 Broyden mixing:
  rms(total) = 0.22977E-03    rms(broyden)= 0.22965E-03
  rms(prec ) = 0.27416E-03
  weight for this iteration     100.00

 Free energy of the ion-electron system (eV)
  ---------------------------------------------------
  alpha Z        PSCENC =         0.24835683
  Ewald energy   TEWEN  =       125.86694920
  -Hartree energ DENC   =      -281.89729560
  -exchange      EXHF   =         0.00000000
  -V(xc)+E(xc)   XCENC  =        24.65935258
  PAW double counting   =       456.36810553     -457.14930241
  entropy T*S    EENTRO =        -0.00000000
  eigenvalues    EBANDS =       -89.16099648
  atomic energy  EATOM  =       197.04175453
  Solvation  Ediel_sol  =         0.00000000
  ---------------------------------------------------
  free energy    TOTEN  =       -24.02307582 eV

  energy without entropy =      -24.02307582  energy(sigma->0) =      -24.02307582


--------------------------------------------------------------------------------------------------------




--------------------------------------- Iteration     10(   2)  ---------------------------------------


    POTLOK:  cpu time    0.1499: real time    0.1501
    SETDIJ:  cpu time    0.0024: real time    0.0023
    EDDIAG:  cpu time    0.0409: real time    0.0409
  RMM-DIIS:  cpu time    0.1567: real time    0.1568
    ORTHCH:  cpu time    0.0018: real time    0.0018
       DOS:  cpu time    0.0002: real time    0.0002
    CHARGE:  cpu time    0.0199: real time    0.0199
    MIXING:  cpu time    0.0046: real time    0.0046
    --------------------------------------------
      LOOP:  cpu time    0.3762: real time    0.3766

 eigenvalue-minimisations  :    52
 total energy-change (2. order) :-0.9908298E-06  (-0.2075297E-06)
 number of electron       8.0000003 magnetization 
 augmentation part        0.1831649 magnetization 

 Broyden mixing:
  rms(total) = 0.11034E-03    rms(broyden)= 0.11030E-03
  rms(prec ) = 0.13444E-03
  weight for this iteration     100.00

 eigenvalues of (default mixing * dielectric matrix)
  average eigenvalue GAMMA=   1.4831
  1.4831

 Free energy of the ion-electron system (eV)
  ---------------------------------------------------
  alpha Z        PSCENC =         0.24835683
  Ewald energy   TEWEN  =       125.86694920
  -Hartree energ DENC   =      -281.89945699
  -exchange      EXHF   =         0.00000000
  -V(xc)+E(xc)   XCENC  =        24.65942507
  PAW double counting   =       456.34691579     -457.12814351
  entropy T*S    EENTRO =        -0.00000000
  eigenvalues    EBANDS =       -89.15887774
  atomic energy  EATOM  =       197.04175453
  Solvation  Ediel_sol  =         0.00000000
  ---------------------------------------------------
  free energy    TOTEN  =       -24.02307682 eV

  energy without entropy =      -24.02307682  energy(sigma->0) =      -24.02307682


--------------------------------------------------------------------------------------------------------




--------------------------------------- Iteration     10(   3)  ---------------------------------------


    POTLOK:  cpu time    0.1503: real time    0.1505
    SETDIJ:  cpu time    0.0022: real time    0.0022
    EDDIAG:  cpu time    0.0410: real time    0.0410
  RMM-DIIS:  cpu time    0.1338: real time    0.1342
    ORTHCH:  cpu time    0.0015: real time    0.0015
       DOS:  cpu time    0.0002: real time    0.0002
    CHARGE:  cpu time    0.0207: real time    0.0207
    MIXING:  cpu time    0.0048: real time    0.0048
    --------------------------------------------
      LOOP:  cpu time    0.3545: real time    0.3551

 eigenvalue-minimisations  :    48
 total energy-change (2. order) :-0.9986489E-06  (-0.3010919E-07)
 number of electron       8.0000003 magnetization 
 augmentation part        0.1831632 magnetization 

 Broyden mixing:
  rms(total) = 0.30361E-04    rms(broyden)= 0.30338E-04
  rms(prec ) = 0.40280E-04
  weight for this iteration     100.00

 eigenvalues of (default mixing * dielectric matrix)
  average eigenvalue GAMMA=   1.4473
  1.2534  1.6412

 Free energy of the ion-electron system (eV)
  ---------------------------------------------------
  alpha Z        PSCENC =         0.24835683
  Ewald energy   TEWEN  =       125.86694920
  -Hartree energ DENC   =      -281.90106476
  -exchange      EXHF   =         0.00000000
  -V(xc)+E(xc)   XCENC  =        24.65946166
  PAW double counting   =       456.32155444     -457.10280479
  entropy T*S    EENTRO =        -0.00000000
  eigenvalues    EBANDS =       -89.15728492
  atomic energy  EATOM  =       197.04175453
  Solvation  Ediel_sol  =         0.00000000
  ---------------------------------------------------
  free energy    TOTEN  =       -24.02307781 eV

  energy without entropy =      -24.02307781  energy(sigma->0) =      -24.02307781


--------------------------------------------------------------------------------------------------------




--------------------------------------- Iteration     10(   4)  ---------------------------------------


    POTLOK:  cpu time    0.1552: real time    0.1553
    SETDIJ:  cpu time    0.0022: real time    0.0022
    EDDIAG:  cpu time    0.0420: real time    0.0453
  RMM-DIIS:  cpu time    0.1398: real time    0.1418
    ORTHCH:  cpu time    0.0016: real time    0.0016
       DOS:  cpu time    0.0002: real time    0.0002
    --------------------------------------------
      LOOP:  cpu time    0.3409: real time    0.3464

 eigenvalue-minimisations  :    48
 total energy-change (2. order) :-0.5405700E-06  (-0.7749708E-08)
 number of electron       8.0000003 magnetization 
 augmentation part        0.1831632 magnetization 

 Free energy of the ion-electron system (eV)
  ---------------------------------------------------
  alpha Z        PSCENC =         0.24835683
  Ewald energy   TEWEN  =       125.86694920
  -Hartree energ DENC   =      -281.90098203
  -exchange      EXHF   =         0.00000000
  -V(xc)+E(xc)   XCENC  =        24.65944300
  PAW double counting   =       456.31156525     -457.09281516
  entropy T*S    EENTRO =        -0.00000000
  eigenvalues    EBANDS =       -89.15734998
  atomic energy  EATOM  =       197.04175453
  Solvation  Ediel_sol  =         0.00000000
  ---------------------------------------------------
  free energy    TOTEN  =       -24.02307835 eV

  energy without entropy =      -24.02307835  energy(sigma->0) =      -24.02307835


--------------------------------------------------------------------------------------------------------




 average (electrostatic) potential at core
  the test charge radii are     0.5201  0.6991
  (the norm of the test charge is              1.0000)
       1 -41.4669       2 -41.4325       3 -41.5051       4 -41.3617       5 -58.0041
 
 
 
 E-fermi :  -8.2700     XC(G=0):  -0.7356     alpha+bet : -0.2160


 k-point     1 :       0.2500    0.2500    0.2500
  band No.  band energies     occupation 
      1     -16.8205      2.00000
      2      -9.3006      2.00000
      3      -9.2518      2.00000
      4      -9.2061      2.00000
      5      -0.3302      0.00000
      6       0.5656      0.00000
      7       0.6825      0.00000
      8       0.7108      0.00000

 k-point     2 :      -0.2500    0.2500    0.2500
  band No.  band energies     occupation 
      1     -16.8204      2.00000
      2      -9.3005      2.00000
      3      -9.2517      2.00000
      4      -9.2059      2.00000
      5      -0.3258      0.00000
      6       0.5524      0.00000
      7       0.6688      0.00000
      8       0.7017      0.00000

 k-point     3 :       0.2500   -0.2500    0.2500
  band No.  band energies     occupation 
      1     -16.8204      2.00000
      2      -9.3005      2.00000
      3      -9.2517      2.00000
      4      -9.2060      2.00000
      5      -0.3226      0.00000
      6       0.5452      0.00000
      7       0.6658      0.00000
      8       0.6920      0.00000

 k-point     4 :      -0.2500   -0.2500    0.2500
  band No.  band energies     occupation 
      1     -16.8205      2.00000
      2      -9.3005      2.00000
      3      -9.2517      2.00000
      4      -9.2059      2.00000
      5      -0.3239      0.00000
      6       0.5535      0.00000
      7       0.6700      0.00000
      8       0.6912      0.00000


--------------------------------------------------------------------------------------------------------


 soft charge-density along one line, spin component           1
         0         1         2         3         4         5         6         7         8         9
 total charge-density along one line
 
 pseudopotential strength for first ion, spin component:           1
 -2.341  -4.033  -0.001  -0.001   0.001
 -4.033  -6.864  -0.003  -0.004   0.002
 -0.001  -0.003  -0.337   0.002  -0.001
 -0.001  -0.004   0.002  -0.336  -0.001
  0.001   0.002  -0.001  -0.001  -0.339
 total augmentation occupancy for first ion, spin component:           1
  3.529  -0.636   0.240   0.326  -0.131
 -0.636   0.129  -0.044  -0.060   0.024
  0.240  -0.044   0.022   0.019  -0.007
  0.326  -0.060   0.019   0.034  -0.010
 -0.131   0.024  -0.007  -0.010   0.013


------------------------ aborting loop because EDIFF is reached ----------------------------------------


    CHARGE:  cpu time    0.0199: real time    0.0199
    FORLOC:  cpu time    0.0134: real time    0.0134
    FORNL :  cpu time    0.0196: real time    0.0196
    STRESS:  cpu time    0.1504: real time    0.1504
    FORCOR:  cpu time    0.1483: real time    0.1483
    FORHAR:  cpu time    0.0487: real time    0.0487
    MIXING:  cpu time    0.0053: real time    0.0053
    OFIELD:  cpu time    0.0001: real time    0.0001

  FORCE on cell =-STRESS in cart. coord.  units (eV):
  Direction    XX          YY          ZZ          XY          YZ          ZX
  --------------------------------------------------------------------------------------
  Alpha Z     0.24836     0.24836     0.24836
  Ewald      41.69064    42.02419    42.15207     0.60614     0.94518     0.11730
  Hartree    93.73456    93.74171    94.42481     0.20864     0.35928     0.19525
  E(xc)     -27.12222   -27.12310   -27.11972     0.00030     0.00081     0.00141
  Local    -194.29704  -194.49809  -195.58586    -0.67137    -1.10272    -0.36798
  n-local   -15.71260   -15.72712   -15.68676    -0.01375    -0.01599     0.00953
  augment     0.11976     0.11830     0.12117    -0.00134    -0.00177     0.00061
  Kinetic   100.63608   100.67318   100.50306    -0.01146    -0.04029    -0.06694
  Fock        0.00000     0.00000     0.00000     0.00000     0.00000     0.00000
  -------------------------------------------------------------------------------------
  Total      -0.70247    -0.54257    -0.94287     0.11715     0.14450    -0.11082
  in kB      -1.15385    -0.89121    -1.54872     0.19243     0.23734    -0.18203
  external pressure =       -1.20 kB  Pullay stress =        0.00 kB

  kinetic pressure (ideal gas correction) =      0.00 kB
  total pressure  =     -1.19 kB
  Total+kin.    -1.150      -0.886      -1.544       0.190       0.234      -0.182

 VOLUME and BASIS-vectors are now :
 -----------------------------------------------------------------------------
  energy-cutoff  :      400.00
  volume of cell :      975.41
      direct lattice vectors                 reciprocal lattice vectors
     9.934006436  0.000000000  0.000000000     0.100664320 -0.001384305 -0.000820955
     0.136544507  9.929285797  0.000000000     0.000000000  0.100712178 -0.002220511
     0.083645753  0.218030638  9.888869673     0.000000000  0.000000000  0.101123792

  length of vectors
     9.934006436  9.930224612  9.891626629     0.100677185  0.100736654  0.101123792


 FORCES acting on ions
    electron-ion (+dipol)            ewald-force                    non-local-force                 convergence-correction
 -----------------------------------------------------------------------------------------------
   -.162E+02 0.296E+02 0.402E+02   0.179E+02 -.326E+02 -.442E+02   -.167E+01 0.307E+01 0.416E+01   -.169E-04 0.203E-04 0.496E-04
   0.518E+02 -.657E+01 0.312E+01   -.569E+02 0.722E+01 -.342E+01   0.533E+01 -.671E+00 0.319E+00   0.489E-04 -.133E-04 0.299E-04
   -.239E+02 -.469E+02 0.157E+01   0.264E+02 0.519E+02 -.174E+01   -.250E+01 -.491E+01 0.154E+00   -.310E-04 -.537E-04 0.249E-04
   -.116E+02 0.236E+02 -.448E+02   0.127E+02 -.257E+02 0.488E+02   -.117E+01 0.238E+01 -.452E+01   -.224E-04 0.258E-04 -.372E-04
   0.475E-01 0.619E+00 -.439E+00   -.902E-01 -.771E+00 0.591E+00   -.706E-01 -.146E+00 0.202E+00   -.220E-04 0.204E-05 0.136E-03
 -----------------------------------------------------------------------------------------------
   0.894E-01 0.284E+00 -.316E+00   0.278E-16 0.000E+00 0.000E+00   -.895E-01 -.284E+00 0.316E+00   -.433E-04 -.189E-04 0.203E-03
 
 
 POSITION                                       TOTAL-FORCE (eV/Angst)
 -----------------------------------------------------------------------------------
      5.44212      4.11426      3.55904        -0.028740      0.087957      0.126996
      4.00714      4.87417      4.33700         0.262459     -0.025768      0.021459
      5.59908      5.71226      4.37059         0.002157      0.008643     -0.022229
      5.35110      4.22943      5.36424        -0.122764      0.226966     -0.480371
      5.10184      4.73560      4.40259        -0.113246     -0.297965      0.354093
 -----------------------------------------------------------------------------------
    total drift:                               -0.000133     -0.000168     -0.000051


--------------------------------------------------------------------------------------------------------



  FREE ENERGIE OF THE ION-ELECTRON SYSTEM (eV)
  ---------------------------------------------------
  free  energy   TOTEN  =       -24.02307835 eV

  energy  without entropy=      -24.02307835  energy(sigma->0) =      -24.02307835
 
 d Force =-0.1728590E-02[-0.193E-02,-0.153E-02]  d Energy =-0.1728180E-02-0.410E-06
 d Force = 0.3031004E+00[ 0.303E+00, 0.303E+00]  d Ewald  = 0.3031001E+00 0.239E-06


--------------------------------------------------------------------------------------------------------


    POTLOK:  cpu time    0.1544: real time    0.1547


--------------------------------------------------------------------------------------------------------


           RANDOM_SEED =         172264910               30                0
   IONSTEP:  cpu time    0.0001: real time    0.0001

  ENERGY OF THE ELECTRON-ION-THERMOSTAT SYSTEM (eV)
  ---------------------------------------------------
% ion-electron   TOTEN  =       -24.023078  see above
  kinetic energy EKIN   =         0.003124
  kin. lattice  EKIN_LAT=         0.000000  (temperature    6.04 K)
  nose potential ES     =         0.000000
  nose kinetic   EPS    =         0.000000
  ---------------------------------------------------
  total energy   ETOTAL =       -24.019954 eV

  maximum distance moved by ions :      0.21E-03


 mean value of Nose-termostat <S>:     1.000 mean value of <T> :     9.687
 mean temperature <T/S>/<1/S>  :     9.687

    WAVPRE:  cpu time    0.0525: real time    0.0527
    FEWALD:  cpu time    0.0012: real time    0.0012
    ORTHCH:  cpu time    0.0085: real time    0.0085
 Prediction of Wavefunctions ALPHA= 2.093 BETA=-1.120
    POTLOK:  cpu time    0.1462: real time    0.1463
    EDDIAG:  cpu time    0.0414: real time    0.0414
     LOOP+:  cpu time    2.2361: real time    2.2446
    4ORBIT:  cpu time    0.0000: real time    0.0000

 total amount of memory used by VASP MPI-rank0    56436. kBytes
=======================================================================

   base      :      30000. kBytes
   nonl-proj :       2623. kBytes
   fftplans  :       8573. kBytes
   grid      :      13527. kBytes
   one-center:          6. kBytes
   wavefun   :       1707. kBytes
 
  
  
 General timing and accounting informations for this job:
 ========================================================
  
                  Total CPU time used (sec):       28.376
                            User time (sec):       26.360
                          System time (sec):        2.015
                         Elapsed time (sec):       28.912
  
                   Maximum memory used (kb):      177560.
                   Average memory used (kb):           0.
  
                          Minor page faults:       250840
                          Major page faults:            3
                 Voluntary context switches:           99
