 vasp.5.4.4.18Apr17-6-g9f103f2a35 (build Jul 09 2021 13:05:15) complex          
  
 executed on             LinuxIFC date 2021.11.04  19:03:57
 running on   16 total cores
 distrk:  each k-point on   16 cores,    1 groups
 distr:  one band on NCORES_PER_BAND=   4 cores,    4 groups


--------------------------------------------------------------------------------------------------------


 INCAR:
 POTCAR:    PAW_PBE H 15Jun2001                   
 POTCAR:    PAW_PBE C 08Apr2002                   
 POTCAR:    PAW_PBE H 15Jun2001                   
   VRHFIN =H: ultrasoft test                                                    
   LEXCH  = PE                                                                  
   EATOM  =    12.4884 eV,    0.9179 Ry                                         
                                                                                
   TITEL  = PAW_PBE H 15Jun2001                                                 
   LULTRA =        F    use ultrasoft PP ?                                      
   IUNSCR =        0    unscreen: 0-lin 1-nonlin 2-no                           
   RPACOR =    0.000    partial core radius                                     
   POMASS =    1.000; ZVAL   =    1.000    mass and valenz                      
   RCORE  =    1.100    outmost cutoff radius                                   
   RWIGS  =    0.700; RWIGS  =    0.370    wigner-seitz radius (au A)           
   ENMAX  =  250.000; ENMIN  =  200.000 eV                                      
   RCLOC  =    0.701    cutoff for local pot                                    
   LCOR   =        T    correct aug charges                                     
   LPAW   =        T    paw PP                                                  
   EAUG   =  400.000                                                            
   RMAX   =    1.123    core radius for proj-oper                               
   RAUG   =    1.200    factor for augmentation sphere                          
   RDEP   =    1.112    radius for radial grids                                 
   RDEPT  =    0.926    core radius for aug-charge                              
                                                                                
   Atomic configuration                                                         
    2 entries                                                                   
     n  l   j            E        occ.                                          
     1  0  0.50        -6.4927   1.0000                                         
     2  1  0.50        -3.4015   0.0000                                         
   Description                                                                  
     l       E           TYP  RCUT    TYP  RCUT                                 
     0     -6.4927494     23  1.100                                             
     0      6.8029130     23  1.100                                             
     1     -4.0817478     23  1.100                                             
  local pseudopotential read in
  atomic valenz-charges read in
  non local Contribution for L=           0  read in
    real space projection operators read in
  non local Contribution for L=           0  read in
    real space projection operators read in
  non local Contribution for L=           1  read in
    real space projection operators read in
    PAW grid and wavefunctions read in
 
   number of l-projection  operators is LMAX  =           3
   number of lm-projection operators is LMMAX =           5
 
 POTCAR:    PAW_PBE C 08Apr2002                   
   VRHFIN =C: s2p2                                                              
   LEXCH  = PE                                                                  
   EATOM  =   147.1560 eV,   10.8157 Ry                                         
                                                                                
   TITEL  = PAW_PBE C 08Apr2002                                                 
   LULTRA =        F    use ultrasoft PP ?                                      
   IUNSCR =        1    unscreen: 0-lin 1-nonlin 2-no                           
   RPACOR =    1.200    partial core radius                                     
   POMASS =   12.011; ZVAL   =    4.000    mass and valenz                      
   RCORE  =    1.500    outmost cutoff radius                                   
   RWIGS  =    1.630; RWIGS  =    0.863    wigner-seitz radius (au A)           
   ENMAX  =  400.000; ENMIN  =  300.000 eV                                      
   ICORE  =        2    local potential                                         
   LCOR   =        T    correct aug charges                                     
   LPAW   =        T    paw PP                                                  
   EAUG   =  644.873                                                            
   DEXC   =    0.000                                                            
   RMAX   =    1.529    core radius for proj-oper                               
   RAUG   =    1.300    factor for augmentation sphere                          
   RDEP   =    1.501    radius for radial grids                                 
   RDEPT  =    1.300    core radius for aug-charge                              
                                                                                
   Atomic configuration                                                         
    4 entries                                                                   
     n  l   j            E        occ.                                          
     1  0  0.50      -273.3789   2.0000                                         
     2  0  0.50       -13.7508   2.0000                                         
     2  1  0.50        -5.2854   2.0000                                         
     3  2  1.50        -5.4423   0.0000                                         
   Description                                                                  
     l       E           TYP  RCUT    TYP  RCUT                                 
     0    -13.7508458     23  1.200                                             
     0     -8.2022199     23  1.200                                             
     1     -5.2854383     23  1.500                                             
     1     34.0145650     23  1.500                                             
     2     -5.4423304      7  1.500                                             
  local pseudopotential read in
  partial core-charges read in
  partial kinetic energy density read in
  atomic valenz-charges read in
  non local Contribution for L=           0  read in
    real space projection operators read in
  non local Contribution for L=           0  read in
    real space projection operators read in
  non local Contribution for L=           1  read in
    real space projection operators read in
  non local Contribution for L=           1  read in
    real space projection operators read in
    PAW grid and wavefunctions read in
 
   number of l-projection  operators is LMAX  =           4
   number of lm-projection operators is LMMAX =           8
 
  PAW_PBE H 15Jun2001                   :
 energy of atom  1       EATOM=  -12.4884
 kinetic energy error for atom=    0.0098 (will be added to EATOM!!)
  PAW_PBE C 08Apr2002                   :
 energy of atom  2       EATOM= -147.1560
 kinetic energy error for atom=    0.0288 (will be added to EATOM!!)
 
 
 POSCAR:  H  C                                   
  positions in cartesian coordinates
  No initial velocities read in
 exchange correlation table for  LEXCH =        8
   RHO(1)=    0.500       N(1)  =     2000
   RHO(2)=  100.500       N(2)  =     4000
 


--------------------------------------------------------------------------------------------------------


 ion  position               nearest neighbor table
   1  0.538  0.407  0.360-   5 1.11
   2  0.395  0.480  0.439-   5 1.11
   3  0.552  0.566  0.442-   5 1.12
   4  0.528  0.416  0.539-   5 1.13
   5  0.504  0.468  0.445-   2 1.11   1 1.11   3 1.12   4 1.13
 

IMPORTANT INFORMATION: All symmetrisations will be switched off!
NOSYMM: (Re-)initialisation of all symmetry stuff for point group C_1.

 
 

Automatic generation of k-mesh.
 generate k-points for:    2    2    2
Space group operators:
 irot       det(A)        alpha          n_x          n_y          n_z        tau_x        tau_y        tau_z
    1     1.000000     0.000000     1.000000     0.000000     0.000000     0.000000     0.000000     0.000000
 
 Subroutine IBZKPT returns following result:
 ===========================================
 
 Found      4 irreducible k-points:
 
 Following reciprocal coordinates:
            Coordinates               Weight
  0.250000  0.250000  0.250000      2.000000
 -0.250000  0.250000  0.250000      2.000000
  0.250000 -0.250000  0.250000      2.000000
 -0.250000 -0.250000  0.250000      2.000000
 
 Following cartesian coordinates:
            Coordinates               Weight
  0.024814  0.024252  0.024674      2.000000
 -0.024814  0.025243  0.025037      2.000000
  0.024814 -0.025243  0.023567      2.000000
 -0.024814 -0.024252  0.023930      2.000000
 


--------------------------------------------------------------------------------------------------------




 Dimension of arrays:
   k-points           NKPTS =      4   k-points in BZ     NKDIM =      4   number of bands    NBANDS=      8
   number of dos      NEDOS =    301   number of ions     NIONS =      5
   non local maximal  LDIM  =      4   non local SUM 2l+1 LMDIM =      8
   total plane-waves  NPLWV = 343000
   max r-space proj   IRMAX =      1   max aug-charges    IRDMAX=   4065
   dimension x,y,z NGX =    70 NGY =   70 NGZ =   70
   dimension x,y,z NGXF=   140 NGYF=  140 NGZF=  140
   support grid    NGXF=   140 NGYF=  140 NGZF=  140
   ions per type =               4   1
   NGX,Y,Z   is equivalent  to a cutoff of  11.55, 11.52, 11.31 a.u.
   NGXF,Y,Z  is equivalent  to a cutoff of  23.10, 23.04, 22.62 a.u.

 SYSTEM =  unknown system                          
 POSCAR =   H  C                                   

 Startparameter for this run:
   NWRITE =      2    write-flag & timer
   PREC   = a         normal or accurate (medium, high low for compatibility)
   ISTART =      0    job   : 0-new  1-cont  2-samecut
   ICHARG =      2    charge: 1-file 2-atom 10-const
   ISPIN  =      1    spin polarized calculation?
   LNONCOLLINEAR =      F non collinear calculations
   LSORBIT =      F    spin-orbit coupling
   INIWAV =      1    electr: 0-lowe 1-rand  2-diag
   LASPH  =      F    aspherical Exc in radial PAW
   METAGGA=      F    non-selfconsistent MetaGGA calc.

 Electronic Relaxation 1
   ENCUT  =  400.0 eV  29.40 Ry    5.42 a.u.  16.43 16.48 16.78*2*pi/ulx,y,z
   ENINI  =  400.0     initial cutoff
   ENAUG  =  644.9 eV  augmentation charge cutoff
   NELM   =    120;   NELMIN=  4; NELMDL= -5     # of ELM steps 
   EDIFF  = 0.1E-05   stopping-criterion for ELM
   LREAL  =      F    real-space projection
   NLSPLINE    = F    spline interpolate recip. space projectors
   LCOMPAT=      F    compatible to vasp.4.4
   GGA_COMPAT  = T    GGA compatible to vasp.4.4-vasp.4.6
   LMAXPAW     = -100 max onsite density
   LMAXMIX     =    2 max onsite mixed and CHGCAR
   VOSKOWN=      0    Vosko Wilk Nusair interpolation
   ROPT   =    0.00000   0.00000
 Ionic relaxation
   EDIFFG = 0.1E-04   stopping-criterion for IOM
   NSW    =     10    number of steps for IOM
   NBLOCK =      1;   KBLOCK =     10    inner block; outer block 
   IBRION =      0    ionic relax: 0-MD 1-quasi-New 2-CG
   NFREE  =      0    steps in history (QN), initial steepest desc. (CG)
   ISIF   =      2    stress and relaxation
   IWAVPR =     12    prediction:  0-non 1-charg 2-wave 3-comb
   ISYM   =      0    0-nonsym 1-usesym 2-fastsym
   LCORR  =      T    Harris-Foulkes like correction to forces

   POTIM  = 0.5000    time-step for ionic-motion
   TEIN   =    0.0    initial temperature
   TEBEG  =    0.0;   TEEND  =   0.0 temperature during run
   SMASS  =  -3.00    Nose mass-parameter (am)
   estimated Nose-frequenzy (Omega)   =  0.10E-29 period in steps =****** mass=  -0.232E-26a.u.
   SCALEE = 1.0000    scale energy and forces
   NPACO  =    256;   APACO  = 16.0  distance and # of slots for P.C.
   PSTRESS=    0.0 pullay stress

  Mass of Ions in am
   POMASS =   1.00 12.01
  Ionic Valenz
   ZVAL   =   1.00  4.00
  Atomic Wigner-Seitz radii
   RWIGS  =  -1.00 -1.00
  virtual crystal weights 
   VCA    =   1.00  1.00
   NELECT =       8.0000    total number of electrons
   NUPDOWN=      -1.0000    fix difference up-down

 DOS related values:
   EMIN   =  10.00;   EMAX   =-10.00  energy-range for DOS
   EFERMI =   0.00
   ISMEAR =     0;   SIGMA  =   0.20  broadening in eV -4-tet -1-fermi 0-gaus

 Electronic relaxation 2 (details)
   IALGO  =     68    algorithm
   LDIAG  =      T    sub-space diagonalisation (order eigenvalues)
   LSUBROT=      F    optimize rotation matrix (better conditioning)
   TURBO    =      0    0=normal 1=particle mesh
   IRESTART =      0    0=no restart 2=restart with 2 vectors
   NREBOOT  =      0    no. of reboots
   NMIN     =      0    reboot dimension
   EREF     =   0.00    reference energy to select bands
   IMIX   =      4    mixing-type and parameters
     AMIX     =   0.40;   BMIX     =  1.00
     AMIX_MAG =   1.60;   BMIX_MAG =  1.00
     AMIN     =   0.10
     WC   =   100.;   INIMIX=   1;  MIXPRE=   1;  MAXMIX= -45

 Intra band minimization:
   WEIMIN = 0.0010     energy-eigenvalue tresh-hold
   EBREAK =  0.31E-07  absolut break condition
   DEPER  =   0.30     relativ break condition  

   TIME   =   0.40     timestep for ELM

  volume/ion in A,a.u.               =     209.40      1413.12
  Fermi-wavevector in a.u.,A,eV,Ry     =   0.322444  0.609331  1.414600  0.103970
  Thomas-Fermi vector in A             =   1.210824
 
 Write flags
   LWAVE        =      F    write WAVECAR
   LDOWNSAMPLE  =      F    k-point downsampling of WAVECAR
   LCHARG       =      F    write CHGCAR
   LVTOT        =      F    write LOCPOT, total local potential
   LVHAR        =      F    write LOCPOT, Hartree potential only
   LELF         =      F    write electronic localiz. function (ELF)
   LORBIT       =      0    0 simple, 1 ext, 2 COOP (PROOUT), +10 PAW based schemes


 Dipole corrections
   LMONO  =      F    monopole corrections only (constant potential shift)
   LDIPOL =      F    correct potential (dipole corrections)
   IDIPOL =      0    1-x, 2-y, 3-z, 4-all directions 
   EPSILON=  1.0000000 bulk dielectric constant

 Exchange correlation treatment:
   GGA     =    --    GGA type
   LEXCH   =     8    internal setting for exchange type
   VOSKOWN=      0    Vosko Wilk Nusair interpolation
   LHFCALC =     F    Hartree Fock is set to
   LHFONE  =     F    Hartree Fock one center treatment
   AEXX    =    0.0000 exact exchange contribution

 Linear response parameters
   LEPSILON=     F    determine dielectric tensor
   LRPA    =     F    only Hartree local field effects (RPA)
   LNABLA  =     F    use nabla operator in PAW spheres
   LVEL    =     F    velocity operator in full k-point grid
   LINTERFAST=   F  fast interpolation
   KINTER  =     0    interpolate to denser k-point grid
   CSHIFT  =0.1000    complex shift for real part using Kramers Kronig
   OMEGAMAX=  -1.0    maximum frequency
   DEG_THRESHOLD= 0.2000000E-02 threshold for treating states as degnerate
   RTIME   =   -0.100 relaxation time in fs
  (WPLASMAI=    0.000 imaginary part of plasma frequency in eV, 0.658/RTIME)
   DFIELD  = 0.0000000 0.0000000 0.0000000 field for delta impulse in time
 
 Orbital magnetization related:
   ORBITALMAG=     F  switch on orbital magnetization
   LCHIMAG   =     F  perturbation theory with respect to B field
   DQ        =  0.001000  dq finite difference perturbation B field
   LLRAUG    =     F  two centre corrections for induced B field



--------------------------------------------------------------------------------------------------------


 molecular dynamics for ions
   using a microcanonical ensemble
 charge density and potential will be updated during run
 non-spin polarized calculation
 RMM-DIIS sequential band-by-band and
  variant of blocked Davidson during initial phase
 perform sub-space diagonalisation
    before iterative eigenvector-optimisation
 modified Broyden-mixing scheme, WC =      100.0
 initial mixing is a Kerker type mixing with AMIX =  0.4000 and BMIX =      1.0000
 Hartree-type preconditioning will be used
 using additional bands            4
 reciprocal scheme for non local part
 use partial core corrections
 calculate Harris-corrections to forces 
   (improved forces if not selfconsistent)
 use gradient corrections 
 use of overlap-Matrix (Vanderbilt PP)
 Gauss-broadening in eV      SIGMA  =   0.20


--------------------------------------------------------------------------------------------------------


  energy-cutoff  :      400.00
  volume of cell :     1047.01
      direct lattice vectors                 reciprocal lattice vectors
    10.075102291  0.000000000  0.000000000     0.099254575 -0.001981613 -0.000726651
     0.201684263 10.101915579  0.000000000     0.000000000  0.098991126  0.002213862
     0.070720321 -0.230065972 10.287220218     0.000000000  0.000000000  0.097207990

  length of vectors
    10.075102291 10.103928687 10.290035546     0.099277014  0.099015879  0.097207990


 
 k-points in units of 2pi/SCALE and weight: read from INCAR                         
   0.02481364  0.02425238  0.02467380       0.250
  -0.02481364  0.02524318  0.02503713       0.250
   0.02481364 -0.02524318  0.02356687       0.250
  -0.02481364 -0.02425238  0.02393019       0.250
 
 k-points in reciprocal lattice and weights: read from INCAR                         
   0.25000000  0.25000000  0.25000000       0.250
  -0.25000000  0.25000000  0.25000000       0.250
   0.25000000 -0.25000000  0.25000000       0.250
  -0.25000000 -0.25000000  0.25000000       0.250
 
 position of ions in fractional coordinates (direct lattice) 
   0.53812954  0.40667962  0.36011101
   0.39457987  0.48023490  0.43850980
   0.55227658  0.56580692  0.44225464
   0.52773910  0.41591166  0.53924833
   0.50353632  0.46755871  0.44548501
 
 position of ions in cartesian coordinates  (Angst):
   5.52919823  4.02539388  3.70454125
   4.10329989  4.75040625  4.51104691
   5.70963375  5.61398599  4.54957084
   5.43904406  4.07744182  5.54736636
   5.19898399  4.62074763  4.58280235
 


--------------------------------------------------------------------------------------------------------


 k-point  1 :   0.2500 0.2500 0.2500  plane waves:   19018
 k-point  2 :  -0.2500 0.2500 0.2500  plane waves:   19010
 k-point  3 :   0.2500-0.2500 0.2500  plane waves:   19040
 k-point  4 :  -0.2500-0.2500 0.2500  plane waves:   18995

 maximum and minimum number of plane-waves per node :      4784     4733

 maximum number of plane-waves:     19040
 maximum index in each direction: 
   IXMAX=   16   IYMAX=   16   IZMAX=   16
   IXMIN=  -16   IYMIN=  -16   IZMIN=  -17


 parallel 3D FFT for wavefunctions:
    minimum data exchange during FFTs selected (reduces bandwidth)
 parallel 3D FFT for charge:
    minimum data exchange during FFTs selected (reduces bandwidth)


 total amount of memory used by VASP MPI-rank0    55540. kBytes
=======================================================================

   base      :      30000. kBytes
   nonl-proj :       2817. kBytes
   fftplans  :       8579. kBytes
   grid      :      13527. kBytes
   one-center:          6. kBytes
   wavefun   :        611. kBytes
 
     INWAV:  cpu time    0.0000: real time    0.0001
 Broyden mixing: mesh for mixing (old mesh)
   NGX = 33   NGY = 33   NGZ = 33
  (NGX  =140   NGY  =140   NGZ  =140)
  gives a total of  35937 points

 initial charge density was supplied:
 charge density of overlapping atoms calculated
 number of electron       8.0000000 magnetization 
 keeping initial charge density in first step


--------------------------------------------------------------------------------------------------------


 Maximum index for augmentation-charges          174 (set IRDMAX)


--------------------------------------------------------------------------------------------------------


 First call to EWALD:  gamma=   0.175
 Maximum number of real-space cells 3x 3x 3
 Maximum number of reciprocal cells 3x 3x 3

    FEWALD:  cpu time    0.0017: real time    0.0017


--------------------------------------- Iteration      1(   1)  ---------------------------------------


    POTLOK:  cpu time    0.1565: real time    0.1571
    SETDIJ:  cpu time    0.0022: real time    0.0022
     EDDAV:  cpu time    0.2180: real time    0.2181
       DOS:  cpu time    0.0002: real time    0.0002
    --------------------------------------------
      LOOP:  cpu time    0.3769: real time    0.3777

 eigenvalue-minimisations  :    96
 total energy-change (2. order) : 0.1549686E+02  (-0.1978064E+03)
 number of electron       8.0000000 magnetization 
 augmentation part        8.0000000 magnetization 

 Free energy of the ion-electron system (eV)
  ---------------------------------------------------
  alpha Z        PSCENC =         0.23137369
  Ewald energy   TEWEN  =       126.12186611
  -Hartree energ DENC   =      -243.48310876
  -exchange      EXHF   =         0.00000000
  -V(xc)+E(xc)   XCENC  =        21.90028157
  PAW double counting   =       117.05815612     -117.66307307
  entropy T*S    EENTRO =        -0.00000000
  eigenvalues    EBANDS =       -85.71038831
  atomic energy  EATOM  =       197.04175453
  Solvation  Ediel_sol  =         0.00000000
  ---------------------------------------------------
  free energy    TOTEN  =        15.49686189 eV

  energy without entropy =       15.49686189  energy(sigma->0) =       15.49686189


--------------------------------------------------------------------------------------------------------




--------------------------------------- Iteration      1(   2)  ---------------------------------------


     EDDAV:  cpu time    0.1643: real time    0.1644
       DOS:  cpu time    0.0081: real time    0.0081
    --------------------------------------------
      LOOP:  cpu time    0.1724: real time    0.1725

 eigenvalue-minimisations  :    64
 total energy-change (2. order) :-0.3817301E+02  (-0.3817301E+02)
 number of electron       8.0000000 magnetization 
 augmentation part        8.0000000 magnetization 

 Free energy of the ion-electron system (eV)
  ---------------------------------------------------
  alpha Z        PSCENC =         0.23137369
  Ewald energy   TEWEN  =       126.12186611
  -Hartree energ DENC   =      -243.48310876
  -exchange      EXHF   =         0.00000000
  -V(xc)+E(xc)   XCENC  =        21.90028157
  PAW double counting   =       117.05815612     -117.66307307
  entropy T*S    EENTRO =        -0.00000000
  eigenvalues    EBANDS =      -123.88340109
  atomic energy  EATOM  =       197.04175453
  Solvation  Ediel_sol  =         0.00000000
  ---------------------------------------------------
  free energy    TOTEN  =       -22.67615089 eV

  energy without entropy =      -22.67615089  energy(sigma->0) =      -22.67615089


--------------------------------------------------------------------------------------------------------




--------------------------------------- Iteration      1(   3)  ---------------------------------------


     EDDAV:  cpu time    0.1628: real time    0.1633
       DOS:  cpu time    0.0004: real time    0.0004
    --------------------------------------------
      LOOP:  cpu time    0.1632: real time    0.1638

 eigenvalue-minimisations  :    64
 total energy-change (2. order) :-0.4400485E+01  (-0.4400485E+01)
 number of electron       8.0000000 magnetization 
 augmentation part        8.0000000 magnetization 

 Free energy of the ion-electron system (eV)
  ---------------------------------------------------
  alpha Z        PSCENC =         0.23137369
  Ewald energy   TEWEN  =       126.12186611
  -Hartree energ DENC   =      -243.48310876
  -exchange      EXHF   =         0.00000000
  -V(xc)+E(xc)   XCENC  =        21.90028157
  PAW double counting   =       117.05815612     -117.66307307
  entropy T*S    EENTRO =        -0.00000000
  eigenvalues    EBANDS =      -128.28388626
  atomic energy  EATOM  =       197.04175453
  Solvation  Ediel_sol  =         0.00000000
  ---------------------------------------------------
  free energy    TOTEN  =       -27.07663606 eV

  energy without entropy =      -27.07663606  energy(sigma->0) =      -27.07663606


--------------------------------------------------------------------------------------------------------




--------------------------------------- Iteration      1(   4)  ---------------------------------------


     EDDAV:  cpu time    0.2715: real time    0.2721
       DOS:  cpu time    0.0002: real time    0.0002
    --------------------------------------------
      LOOP:  cpu time    0.2717: real time    0.2724

 eigenvalue-minimisations  :   128
 total energy-change (2. order) :-0.1789230E+00  (-0.1789230E+00)
 number of electron       8.0000000 magnetization 
 augmentation part        8.0000000 magnetization 

 Free energy of the ion-electron system (eV)
  ---------------------------------------------------
  alpha Z        PSCENC =         0.23137369
  Ewald energy   TEWEN  =       126.12186611
  -Hartree energ DENC   =      -243.48310876
  -exchange      EXHF   =         0.00000000
  -V(xc)+E(xc)   XCENC  =        21.90028157
  PAW double counting   =       117.05815612     -117.66307307
  entropy T*S    EENTRO =        -0.00000000
  eigenvalues    EBANDS =      -128.46280922
  atomic energy  EATOM  =       197.04175453
  Solvation  Ediel_sol  =         0.00000000
  ---------------------------------------------------
  free energy    TOTEN  =       -27.25555902 eV

  energy without entropy =      -27.25555902  energy(sigma->0) =      -27.25555902


--------------------------------------------------------------------------------------------------------




--------------------------------------- Iteration      1(   5)  ---------------------------------------


     EDDAV:  cpu time    0.2045: real time    0.2049
       DOS:  cpu time    0.0002: real time    0.0002
    CHARGE:  cpu time    0.0242: real time    0.0242
    MIXING:  cpu time    0.0045: real time    0.0045
    --------------------------------------------
      LOOP:  cpu time    0.2334: real time    0.2338

 eigenvalue-minimisations  :    88
 total energy-change (2. order) :-0.5821531E-04  (-0.5821535E-04)
 number of electron       8.0000002 magnetization 
 augmentation part        0.2180897 magnetization 

 Broyden mixing:
  rms(total) = 0.83617E+00    rms(broyden)= 0.83596E+00
  rms(prec ) = 0.11806E+01
  weight for this iteration     100.00

 Free energy of the ion-electron system (eV)
  ---------------------------------------------------
  alpha Z        PSCENC =         0.23137369
  Ewald energy   TEWEN  =       126.12186611
  -Hartree energ DENC   =      -243.48310876
  -exchange      EXHF   =         0.00000000
  -V(xc)+E(xc)   XCENC  =        21.90028157
  PAW double counting   =       117.05815612     -117.66307307
  entropy T*S    EENTRO =        -0.00000000
  eigenvalues    EBANDS =      -128.46286743
  atomic energy  EATOM  =       197.04175453
  Solvation  Ediel_sol  =         0.00000000
  ---------------------------------------------------
  free energy    TOTEN  =       -27.25561723 eV

  energy without entropy =      -27.25561723  energy(sigma->0) =      -27.25561723


--------------------------------------------------------------------------------------------------------




--------------------------------------- Iteration      1(   6)  ---------------------------------------


    POTLOK:  cpu time    0.1519: real time    0.1522
    SETDIJ:  cpu time    0.0022: real time    0.0022
    EDDIAG:  cpu time    0.0457: real time    0.0458
  RMM-DIIS:  cpu time    0.1718: real time    0.1719
    ORTHCH:  cpu time    0.0016: real time    0.0016
       DOS:  cpu time    0.0002: real time    0.0002
    CHARGE:  cpu time    0.0218: real time    0.0218
    MIXING:  cpu time    0.0047: real time    0.0047
    --------------------------------------------
      LOOP:  cpu time    0.3999: real time    0.4004

 eigenvalue-minimisations  :    64
 total energy-change (2. order) : 0.2668936E+01  (-0.4846944E+00)
 number of electron       8.0000002 magnetization 
 augmentation part        0.1922519 magnetization 

 Broyden mixing:
  rms(total) = 0.41429E+00    rms(broyden)= 0.41419E+00
  rms(prec ) = 0.53417E+00
  weight for this iteration     100.00

 eigenvalues of (default mixing * dielectric matrix)
  average eigenvalue GAMMA=   1.2897
  1.2897

 Free energy of the ion-electron system (eV)
  ---------------------------------------------------
  alpha Z        PSCENC =         0.23137369
  Ewald energy   TEWEN  =       126.12186611
  -Hartree energ DENC   =      -262.43192879
  -exchange      EXHF   =         0.00000000
  -V(xc)+E(xc)   XCENC  =        23.05094890
  PAW double counting   =       231.91135313     -232.68035997
  entropy T*S    EENTRO =        -0.00000000
  eigenvalues    EBANDS =      -107.83168860
  atomic energy  EATOM  =       197.04175453
  Solvation  Ediel_sol  =         0.00000000
  ---------------------------------------------------
  free energy    TOTEN  =       -24.58668100 eV

  energy without entropy =      -24.58668100  energy(sigma->0) =      -24.58668100


--------------------------------------------------------------------------------------------------------




--------------------------------------- Iteration      1(   7)  ---------------------------------------


    POTLOK:  cpu time    0.1533: real time    0.1538
    SETDIJ:  cpu time    0.0020: real time    0.0020
    EDDIAG:  cpu time    0.0429: real time    0.0429
  RMM-DIIS:  cpu time    0.1663: real time    0.1667
    ORTHCH:  cpu time    0.0016: real time    0.0016
       DOS:  cpu time    0.0002: real time    0.0002
    CHARGE:  cpu time    0.0201: real time    0.0202
    MIXING:  cpu time    0.0047: real time    0.0047
    --------------------------------------------
      LOOP:  cpu time    0.3910: real time    0.3922

 eigenvalue-minimisations  :    64
 total energy-change (2. order) : 0.4515160E+00  (-0.1016915E+00)
 number of electron       8.0000001 magnetization 
 augmentation part        0.1825899 magnetization 

 Broyden mixing:
  rms(total) = 0.22209E+00    rms(broyden)= 0.22204E+00
  rms(prec ) = 0.26871E+00
  weight for this iteration     100.00

 eigenvalues of (default mixing * dielectric matrix)
  average eigenvalue GAMMA=   1.8357
  1.4316  2.2397

 Free energy of the ion-electron system (eV)
  ---------------------------------------------------
  alpha Z        PSCENC =         0.23137369
  Ewald energy   TEWEN  =       126.12186611
  -Hartree energ DENC   =      -273.33751264
  -exchange      EXHF   =         0.00000000
  -V(xc)+E(xc)   XCENC  =        23.85898748
  PAW double counting   =       347.32654809     -348.12873435
  entropy T*S    EENTRO =        -0.00000000
  eigenvalues    EBANDS =       -97.24944796
  atomic energy  EATOM  =       197.04175453
  Solvation  Ediel_sol  =         0.00000000
  ---------------------------------------------------
  free energy    TOTEN  =       -24.13516504 eV

  energy without entropy =      -24.13516504  energy(sigma->0) =      -24.13516504


--------------------------------------------------------------------------------------------------------




--------------------------------------- Iteration      1(   8)  ---------------------------------------


    POTLOK:  cpu time    0.1512: real time    0.1519
    SETDIJ:  cpu time    0.0023: real time    0.0023
    EDDIAG:  cpu time    0.0425: real time    0.0425
  RMM-DIIS:  cpu time    0.1690: real time    0.1691
    ORTHCH:  cpu time    0.0016: real time    0.0016
       DOS:  cpu time    0.0002: real time    0.0002
    CHARGE:  cpu time    0.0201: real time    0.0201
    MIXING:  cpu time    0.0049: real time    0.0049
    --------------------------------------------
      LOOP:  cpu time    0.3918: real time    0.3927

 eigenvalue-minimisations  :    64
 total energy-change (2. order) : 0.1428621E+00  (-0.1630317E-01)
 number of electron       8.0000001 magnetization 
 augmentation part        0.1812672 magnetization 

 Broyden mixing:
  rms(total) = 0.23014E-01    rms(broyden)= 0.22990E-01
  rms(prec ) = 0.51709E-01
  weight for this iteration     100.00

 eigenvalues of (default mixing * dielectric matrix)
  average eigenvalue GAMMA=   1.5359
  2.2479  0.9780  1.3819

 Free energy of the ion-electron system (eV)
  ---------------------------------------------------
  alpha Z        PSCENC =         0.23137369
  Ewald energy   TEWEN  =       126.12186611
  -Hartree energ DENC   =      -278.72915907
  -exchange      EXHF   =         0.00000000
  -V(xc)+E(xc)   XCENC  =        24.39310201
  PAW double counting   =       448.30914241     -449.08043630
  entropy T*S    EENTRO =        -0.00000000
  eigenvalues    EBANDS =       -92.27994627
  atomic energy  EATOM  =       197.04175453
  Solvation  Ediel_sol  =         0.00000000
  ---------------------------------------------------
  free energy    TOTEN  =       -23.99230289 eV

  energy without entropy =      -23.99230289  energy(sigma->0) =      -23.99230289


--------------------------------------------------------------------------------------------------------




--------------------------------------- Iteration      1(   9)  ---------------------------------------


    POTLOK:  cpu time    0.1516: real time    0.1518
    SETDIJ:  cpu time    0.0020: real time    0.0020
    EDDIAG:  cpu time    0.0419: real time    0.0420
  RMM-DIIS:  cpu time    0.1684: real time    0.1687
    ORTHCH:  cpu time    0.0015: real time    0.0015
       DOS:  cpu time    0.0002: real time    0.0002
    CHARGE:  cpu time    0.0201: real time    0.0201
    MIXING:  cpu time    0.0050: real time    0.0050
    --------------------------------------------
      LOOP:  cpu time    0.3907: real time    0.3912

 eigenvalue-minimisations  :    64
 total energy-change (2. order) : 0.5503029E-02  (-0.1063765E-02)
 number of electron       8.0000001 magnetization 
 augmentation part        0.1807295 magnetization 

 Broyden mixing:
  rms(total) = 0.19045E-01    rms(broyden)= 0.19042E-01
  rms(prec ) = 0.39326E-01
  weight for this iteration     100.00

 eigenvalues of (default mixing * dielectric matrix)
  average eigenvalue GAMMA=   2.0715
  1.0051  1.3496  2.9656  2.9656

 Free energy of the ion-electron system (eV)
  ---------------------------------------------------
  alpha Z        PSCENC =         0.23137369
  Ewald energy   TEWEN  =       126.12186611
  -Hartree energ DENC   =      -279.94737403
  -exchange      EXHF   =         0.00000000
  -V(xc)+E(xc)   XCENC  =        24.45871923
  PAW double counting   =       450.55057646     -451.32468525
  entropy T*S    EENTRO =        -0.00000000
  eigenvalues    EBANDS =       -91.11903060
  atomic energy  EATOM  =       197.04175453
  Solvation  Ediel_sol  =         0.00000000
  ---------------------------------------------------
  free energy    TOTEN  =       -23.98679986 eV

  energy without entropy =      -23.98679986  energy(sigma->0) =      -23.98679986


--------------------------------------------------------------------------------------------------------




--------------------------------------- Iteration      1(  10)  ---------------------------------------


    POTLOK:  cpu time    0.1463: real time    0.1476
    SETDIJ:  cpu time    0.0019: real time    0.0019
    EDDIAG:  cpu time    0.0419: real time    0.0425
  RMM-DIIS:  cpu time    0.1692: real time    0.1697
    ORTHCH:  cpu time    0.0016: real time    0.0016
       DOS:  cpu time    0.0002: real time    0.0002
    CHARGE:  cpu time    0.0203: real time    0.0203
    MIXING:  cpu time    0.0050: real time    0.0050
    --------------------------------------------
      LOOP:  cpu time    0.3864: real time    0.3888

 eigenvalue-minimisations  :    64
 total energy-change (2. order) : 0.6465788E-02  (-0.2423116E-02)
 number of electron       8.0000001 magnetization 
 augmentation part        0.1797158 magnetization 

 Broyden mixing:
  rms(total) = 0.26585E-01    rms(broyden)= 0.26584E-01
  rms(prec ) = 0.34214E-01
  weight for this iteration     100.00

 eigenvalues of (default mixing * dielectric matrix)
  average eigenvalue GAMMA=   1.7918
  3.0701  2.3777  0.9874  1.2620  1.2620

 Free energy of the ion-electron system (eV)
  ---------------------------------------------------
  alpha Z        PSCENC =         0.23137369
  Ewald energy   TEWEN  =       126.12186611
  -Hartree energ DENC   =      -282.09697845
  -exchange      EXHF   =         0.00000000
  -V(xc)+E(xc)   XCENC  =        24.52905648
  PAW double counting   =       435.97826808     -436.75565763
  entropy T*S    EENTRO =        -0.00000000
  eigenvalues    EBANDS =       -89.03001688
  atomic energy  EATOM  =       197.04175453
  Solvation  Ediel_sol  =         0.00000000
  ---------------------------------------------------
  free energy    TOTEN  =       -23.98033407 eV

  energy without entropy =      -23.98033407  energy(sigma->0) =      -23.98033407


--------------------------------------------------------------------------------------------------------




--------------------------------------- Iteration      1(  11)  ---------------------------------------


    POTLOK:  cpu time    0.1463: real time    0.1466
    SETDIJ:  cpu time    0.0024: real time    0.0024
    EDDIAG:  cpu time    0.0418: real time    0.0418
  RMM-DIIS:  cpu time    0.1645: real time    0.1646
    ORTHCH:  cpu time    0.0016: real time    0.0016
       DOS:  cpu time    0.0002: real time    0.0002
    CHARGE:  cpu time    0.0204: real time    0.0205
    MIXING:  cpu time    0.0052: real time    0.0052
    --------------------------------------------
      LOOP:  cpu time    0.3825: real time    0.3828

 eigenvalue-minimisations  :    64
 total energy-change (2. order) :-0.1104729E-02  (-0.9969723E-03)
 number of electron       8.0000001 magnetization 
 augmentation part        0.1801326 magnetization 

 Broyden mixing:
  rms(total) = 0.10960E-01    rms(broyden)= 0.10957E-01
  rms(prec ) = 0.16324E-01
  weight for this iteration     100.00

 eigenvalues of (default mixing * dielectric matrix)
  average eigenvalue GAMMA=   2.2666
  4.8348  3.0517  2.4225  1.2368  1.0269  1.0269

 Free energy of the ion-electron system (eV)
  ---------------------------------------------------
  alpha Z        PSCENC =         0.23137369
  Ewald energy   TEWEN  =       126.12186611
  -Hartree energ DENC   =      -281.98897346
  -exchange      EXHF   =         0.00000000
  -V(xc)+E(xc)   XCENC  =        24.54377625
  PAW double counting   =       444.75777779     -445.52719838
  entropy T*S    EENTRO =        -0.00000000
  eigenvalues    EBANDS =       -89.16181533
  atomic energy  EATOM  =       197.04175453
  Solvation  Ediel_sol  =         0.00000000
  ---------------------------------------------------
  free energy    TOTEN  =       -23.98143880 eV

  energy without entropy =      -23.98143880  energy(sigma->0) =      -23.98143880


--------------------------------------------------------------------------------------------------------




--------------------------------------- Iteration      1(  12)  ---------------------------------------


    POTLOK:  cpu time    0.1374: real time    0.1379
    SETDIJ:  cpu time    0.0021: real time    0.0021
    EDDIAG:  cpu time    0.0418: real time    0.0418
  RMM-DIIS:  cpu time    0.1680: real time    0.1683
    ORTHCH:  cpu time    0.0016: real time    0.0016
       DOS:  cpu time    0.0002: real time    0.0002
    CHARGE:  cpu time    0.0198: real time    0.0198
    MIXING:  cpu time    0.0055: real time    0.0055
    --------------------------------------------
      LOOP:  cpu time    0.3764: real time    0.3771

 eigenvalue-minimisations  :    64
 total energy-change (2. order) :-0.8787202E-02  (-0.2317890E-03)
 number of electron       8.0000001 magnetization 
 augmentation part        0.1802659 magnetization 

 Broyden mixing:
  rms(total) = 0.11023E-01    rms(broyden)= 0.11022E-01
  rms(prec ) = 0.14557E-01
  weight for this iteration     100.00

 eigenvalues of (default mixing * dielectric matrix)
  average eigenvalue GAMMA=   2.0133
  4.7808  2.9220  2.4133  1.1671  1.0294  1.0294  0.7511

 Free energy of the ion-electron system (eV)
  ---------------------------------------------------
  alpha Z        PSCENC =         0.23137369
  Ewald energy   TEWEN  =       126.12186611
  -Hartree energ DENC   =      -282.23337331
  -exchange      EXHF   =         0.00000000
  -V(xc)+E(xc)   XCENC  =        24.53558294
  PAW double counting   =       441.06542197     -441.83488631
  entropy T*S    EENTRO =        -0.00000000
  eigenvalues    EBANDS =       -88.91796563
  atomic energy  EATOM  =       197.04175453
  Solvation  Ediel_sol  =         0.00000000
  ---------------------------------------------------
  free energy    TOTEN  =       -23.99022600 eV

  energy without entropy =      -23.99022600  energy(sigma->0) =      -23.99022600


--------------------------------------------------------------------------------------------------------




--------------------------------------- Iteration      1(  13)  ---------------------------------------


    POTLOK:  cpu time    0.1373: real time    0.1385
    SETDIJ:  cpu time    0.0024: real time    0.0024
    EDDIAG:  cpu time    0.0419: real time    0.0419
  RMM-DIIS:  cpu time    0.1670: real time    0.1671
    ORTHCH:  cpu time    0.0016: real time    0.0016
       DOS:  cpu time    0.0002: real time    0.0002
    CHARGE:  cpu time    0.0199: real time    0.0199
    MIXING:  cpu time    0.0055: real time    0.0055
    --------------------------------------------
      LOOP:  cpu time    0.3759: real time    0.3771

 eigenvalue-minimisations  :    64
 total energy-change (2. order) :-0.7570391E-03  (-0.1230595E-03)
 number of electron       8.0000001 magnetization 
 augmentation part        0.1799955 magnetization 

 Broyden mixing:
  rms(total) = 0.31058E-02    rms(broyden)= 0.31050E-02
  rms(prec ) = 0.48653E-02
  weight for this iteration     100.00

 eigenvalues of (default mixing * dielectric matrix)
  average eigenvalue GAMMA=   2.4310
  6.1040  4.2076  2.4139  2.4139  1.2121  1.2121  0.9867  0.8974

 Free energy of the ion-electron system (eV)
  ---------------------------------------------------
  alpha Z        PSCENC =         0.23137369
  Ewald energy   TEWEN  =       126.12186611
  -Hartree energ DENC   =      -282.40909588
  -exchange      EXHF   =         0.00000000
  -V(xc)+E(xc)   XCENC  =        24.53992520
  PAW double counting   =       440.82846298     -441.60028022
  entropy T*S    EENTRO =        -0.00000000
  eigenvalues    EBANDS =       -88.74498946
  atomic energy  EATOM  =       197.04175453
  Solvation  Ediel_sol  =         0.00000000
  ---------------------------------------------------
  free energy    TOTEN  =       -23.99098304 eV

  energy without entropy =      -23.99098304  energy(sigma->0) =      -23.99098304


--------------------------------------------------------------------------------------------------------




--------------------------------------- Iteration      1(  14)  ---------------------------------------


    POTLOK:  cpu time    0.1355: real time    0.1356
    SETDIJ:  cpu time    0.0021: real time    0.0021
    EDDIAG:  cpu time    0.0419: real time    0.0420
  RMM-DIIS:  cpu time    0.1662: real time    0.1666
    ORTHCH:  cpu time    0.0020: real time    0.0020
       DOS:  cpu time    0.0002: real time    0.0002
    CHARGE:  cpu time    0.0200: real time    0.0200
    MIXING:  cpu time    0.0058: real time    0.0058
    --------------------------------------------
      LOOP:  cpu time    0.3737: real time    0.3744

 eigenvalue-minimisations  :    64
 total energy-change (2. order) :-0.2839122E-02  (-0.8600170E-04)
 number of electron       8.0000001 magnetization 
 augmentation part        0.1799354 magnetization 

 Broyden mixing:
  rms(total) = 0.17677E-02    rms(broyden)= 0.17663E-02
  rms(prec ) = 0.24468E-02
  weight for this iteration     100.00

 eigenvalues of (default mixing * dielectric matrix)
  average eigenvalue GAMMA=   2.3161
  6.3745  3.8584  2.6539  2.3204  1.1990  1.1990  0.9604  0.9604  1.3186

 Free energy of the ion-electron system (eV)
  ---------------------------------------------------
  alpha Z        PSCENC =         0.23137369
  Ewald energy   TEWEN  =       126.12186611
  -Hartree energ DENC   =      -282.36003406
  -exchange      EXHF   =         0.00000000
  -V(xc)+E(xc)   XCENC  =        24.52847994
  PAW double counting   =       440.39188379     -441.16420906
  entropy T*S    EENTRO =        -0.00000000
  eigenvalues    EBANDS =       -88.78493711
  atomic energy  EATOM  =       197.04175453
  Solvation  Ediel_sol  =         0.00000000
  ---------------------------------------------------
  free energy    TOTEN  =       -23.99382216 eV

  energy without entropy =      -23.99382216  energy(sigma->0) =      -23.99382216


--------------------------------------------------------------------------------------------------------




--------------------------------------- Iteration      1(  15)  ---------------------------------------


    POTLOK:  cpu time    0.1362: real time    0.1363
    SETDIJ:  cpu time    0.0021: real time    0.0021
    EDDIAG:  cpu time    0.0415: real time    0.0415
  RMM-DIIS:  cpu time    0.1671: real time    0.1678
    ORTHCH:  cpu time    0.0017: real time    0.0017
       DOS:  cpu time    0.0002: real time    0.0002
    CHARGE:  cpu time    0.0198: real time    0.0198
    MIXING:  cpu time    0.0063: real time    0.0065
    --------------------------------------------
      LOOP:  cpu time    0.3748: real time    0.3759

 eigenvalue-minimisations  :    64
 total energy-change (2. order) :-0.2474040E-03  (-0.8664860E-05)
 number of electron       8.0000001 magnetization 
 augmentation part        0.1798559 magnetization 

 Broyden mixing:
  rms(total) = 0.22436E-02    rms(broyden)= 0.22433E-02
  rms(prec ) = 0.30177E-02
  weight for this iteration     100.00

 eigenvalues of (default mixing * dielectric matrix)
  average eigenvalue GAMMA=   2.5183
  7.5138  4.7362  2.8980  2.5513  2.1998  1.2293  1.2293  0.9624  0.9624  0.9002

 Free energy of the ion-electron system (eV)
  ---------------------------------------------------
  alpha Z        PSCENC =         0.23137369
  Ewald energy   TEWEN  =       126.12186611
  -Hartree energ DENC   =      -282.42064915
  -exchange      EXHF   =         0.00000000
  -V(xc)+E(xc)   XCENC  =        24.53214220
  PAW double counting   =       440.51093562     -441.28326704
  entropy T*S    EENTRO =        -0.00000000
  eigenvalues    EBANDS =       -88.72822553
  atomic energy  EATOM  =       197.04175453
  Solvation  Ediel_sol  =         0.00000000
  ---------------------------------------------------
  free energy    TOTEN  =       -23.99406957 eV

  energy without entropy =      -23.99406957  energy(sigma->0) =      -23.99406957


--------------------------------------------------------------------------------------------------------




--------------------------------------- Iteration      1(  16)  ---------------------------------------


    POTLOK:  cpu time    0.1377: real time    0.1379
    SETDIJ:  cpu time    0.0022: real time    0.0022
    EDDIAG:  cpu time    0.0417: real time    0.0417
  RMM-DIIS:  cpu time    0.1666: real time    0.1668
    ORTHCH:  cpu time    0.0015: real time    0.0015
       DOS:  cpu time    0.0002: real time    0.0002
    CHARGE:  cpu time    0.0206: real time    0.0206
    MIXING:  cpu time    0.0060: real time    0.0060
    --------------------------------------------
      LOOP:  cpu time    0.3766: real time    0.3769

 eigenvalue-minimisations  :    64
 total energy-change (2. order) :-0.2255562E-03  (-0.1334101E-04)
 number of electron       8.0000001 magnetization 
 augmentation part        0.1799199 magnetization 

 Broyden mixing:
  rms(total) = 0.35309E-03    rms(broyden)= 0.35238E-03
  rms(prec ) = 0.52094E-03
  weight for this iteration     100.00

 eigenvalues of (default mixing * dielectric matrix)
  average eigenvalue GAMMA=   2.5195
  7.7861  4.8856  3.1149  2.4525  2.1073  2.1073  1.2131  1.2131  1.0000  0.9175
  0.9175

 Free energy of the ion-electron system (eV)
  ---------------------------------------------------
  alpha Z        PSCENC =         0.23137369
  Ewald energy   TEWEN  =       126.12186611
  -Hartree energ DENC   =      -282.35854440
  -exchange      EXHF   =         0.00000000
  -V(xc)+E(xc)   XCENC  =        24.52962738
  PAW double counting   =       440.49709744     -441.26875691
  entropy T*S    EENTRO =        -0.00000000
  eigenvalues    EBANDS =       -88.78871297
  atomic energy  EATOM  =       197.04175453
  Solvation  Ediel_sol  =         0.00000000
  ---------------------------------------------------
  free energy    TOTEN  =       -23.99429512 eV

  energy without entropy =      -23.99429512  energy(sigma->0) =      -23.99429512


--------------------------------------------------------------------------------------------------------




--------------------------------------- Iteration      1(  17)  ---------------------------------------


    POTLOK:  cpu time    0.1361: real time    0.1363
    SETDIJ:  cpu time    0.0025: real time    0.0025
    EDDIAG:  cpu time    0.0417: real time    0.0417
  RMM-DIIS:  cpu time    0.1635: real time    0.1707
    ORTHCH:  cpu time    0.0016: real time    0.0016
       DOS:  cpu time    0.0002: real time    0.0002
    CHARGE:  cpu time    0.0198: real time    0.0198
    MIXING:  cpu time    0.0062: real time    0.0062
    --------------------------------------------
      LOOP:  cpu time    0.3715: real time    0.3789

 eigenvalue-minimisations  :    64
 total energy-change (2. order) :-0.4232132E-04  (-0.8741731E-06)
 number of electron       8.0000001 magnetization 
 augmentation part        0.1799096 magnetization 

 Broyden mixing:
  rms(total) = 0.31587E-03    rms(broyden)= 0.31585E-03
  rms(prec ) = 0.43179E-03
  weight for this iteration     100.00

 eigenvalues of (default mixing * dielectric matrix)
  average eigenvalue GAMMA=   2.5967
  8.5528  5.2979  3.9632  2.5295  2.5295  1.7143  1.2767  1.2767  1.1854  0.9823
  0.9258  0.9258

 Free energy of the ion-electron system (eV)
  ---------------------------------------------------
  alpha Z        PSCENC =         0.23137369
  Ewald energy   TEWEN  =       126.12186611
  -Hartree energ DENC   =      -282.38672788
  -exchange      EXHF   =         0.00000000
  -V(xc)+E(xc)   XCENC  =        24.53074469
  PAW double counting   =       440.48163348     -441.25350736
  entropy T*S    EENTRO =        -0.00000000
  eigenvalues    EBANDS =       -88.76147471
  atomic energy  EATOM  =       197.04175453
  Solvation  Ediel_sol  =         0.00000000
  ---------------------------------------------------
  free energy    TOTEN  =       -23.99433744 eV

  energy without entropy =      -23.99433744  energy(sigma->0) =      -23.99433744


--------------------------------------------------------------------------------------------------------




--------------------------------------- Iteration      1(  18)  ---------------------------------------


    POTLOK:  cpu time    0.1409: real time    0.1411
    SETDIJ:  cpu time    0.0018: real time    0.0021
    EDDIAG:  cpu time    0.0415: real time    0.0417
  RMM-DIIS:  cpu time    0.1332: real time    0.1335
    ORTHCH:  cpu time    0.0016: real time    0.0016
       DOS:  cpu time    0.0002: real time    0.0002
    CHARGE:  cpu time    0.0199: real time    0.0199
    MIXING:  cpu time    0.0065: real time    0.0065
    --------------------------------------------
      LOOP:  cpu time    0.3456: real time    0.3465

 eigenvalue-minimisations  :    48
 total energy-change (2. order) :-0.1655166E-04  (-0.1589570E-06)
 number of electron       8.0000001 magnetization 
 augmentation part        0.1799127 magnetization 

 Broyden mixing:
  rms(total) = 0.67628E-04    rms(broyden)= 0.67587E-04
  rms(prec ) = 0.10202E-03
  weight for this iteration     100.00

 eigenvalues of (default mixing * dielectric matrix)
  average eigenvalue GAMMA=   2.5929
  8.5645  5.5073  3.6609  3.0263  2.1937  2.1967  2.1967  1.2261  1.2261  1.0454
  0.9821  0.9821  0.8999

 Free energy of the ion-electron system (eV)
  ---------------------------------------------------
  alpha Z        PSCENC =         0.23137369
  Ewald energy   TEWEN  =       126.12186611
  -Hartree energ DENC   =      -282.37833219
  -exchange      EXHF   =         0.00000000
  -V(xc)+E(xc)   XCENC  =        24.53041422
  PAW double counting   =       440.52077369     -441.29256411
  entropy T*S    EENTRO =        -0.00000000
  eigenvalues    EBANDS =       -88.76963993
  atomic energy  EATOM  =       197.04175453
  Solvation  Ediel_sol  =         0.00000000
  ---------------------------------------------------
  free energy    TOTEN  =       -23.99435400 eV

  energy without entropy =      -23.99435400  energy(sigma->0) =      -23.99435400


--------------------------------------------------------------------------------------------------------




--------------------------------------- Iteration      1(  19)  ---------------------------------------


    POTLOK:  cpu time    0.1415: real time    0.1433
    SETDIJ:  cpu time    0.0020: real time    0.0020
    EDDIAG:  cpu time    0.0418: real time    0.0418
  RMM-DIIS:  cpu time    0.1620: real time    0.1621
    ORTHCH:  cpu time    0.0016: real time    0.0016
       DOS:  cpu time    0.0003: real time    0.0003
    CHARGE:  cpu time    0.0198: real time    0.0198
    MIXING:  cpu time    0.0069: real time    0.0069
    --------------------------------------------
      LOOP:  cpu time    0.3759: real time    0.3777

 eigenvalue-minimisations  :    60
 total energy-change (2. order) :-0.4874298E-05  (-0.3013267E-06)
 number of electron       8.0000001 magnetization 
 augmentation part        0.1799272 magnetization 

 Broyden mixing:
  rms(total) = 0.28628E-03    rms(broyden)= 0.28621E-03
  rms(prec ) = 0.38961E-03
  weight for this iteration     100.00

 eigenvalues of (default mixing * dielectric matrix)
  average eigenvalue GAMMA=   2.5694
  8.6766  5.6312  3.9263  3.6471  2.4631  2.4631  1.9237  1.2452  1.2452  1.0644
  0.9577  0.9577  0.8853  0.8853

 Free energy of the ion-electron system (eV)
  ---------------------------------------------------
  alpha Z        PSCENC =         0.23137369
  Ewald energy   TEWEN  =       126.12186611
  -Hartree energ DENC   =      -282.36769787
  -exchange      EXHF   =         0.00000000
  -V(xc)+E(xc)   XCENC  =        24.52977188
  PAW double counting   =       440.48786422     -441.25958057
  entropy T*S    EENTRO =        -0.00000000
  eigenvalues    EBANDS =       -88.77971086
  atomic energy  EATOM  =       197.04175453
  Solvation  Ediel_sol  =         0.00000000
  ---------------------------------------------------
  free energy    TOTEN  =       -23.99435887 eV

  energy without entropy =      -23.99435887  energy(sigma->0) =      -23.99435887


--------------------------------------------------------------------------------------------------------




--------------------------------------- Iteration      1(  20)  ---------------------------------------


    POTLOK:  cpu time    0.1442: real time    0.1446
    SETDIJ:  cpu time    0.0024: real time    0.0024
    EDDIAG:  cpu time    0.0416: real time    0.0416
  RMM-DIIS:  cpu time    0.1337: real time    0.1337
    ORTHCH:  cpu time    0.0015: real time    0.0015
       DOS:  cpu time    0.0002: real time    0.0002
    --------------------------------------------
      LOOP:  cpu time    0.3235: real time    0.3239

 eigenvalue-minimisations  :    48
 total energy-change (2. order) :-0.4375292E-06  (-0.9538695E-07)
 number of electron       8.0000001 magnetization 
 augmentation part        0.1799272 magnetization 

 Free energy of the ion-electron system (eV)
  ---------------------------------------------------
  alpha Z        PSCENC =         0.23137369
  Ewald energy   TEWEN  =       126.12186611
  -Hartree energ DENC   =      -282.37498971
  -exchange      EXHF   =         0.00000000
  -V(xc)+E(xc)   XCENC  =        24.53010180
  PAW double counting   =       440.49671999     -441.26851738
  entropy T*S    EENTRO =        -0.00000000
  eigenvalues    EBANDS =       -88.77266834
  atomic energy  EATOM  =       197.04175453
  Solvation  Ediel_sol  =         0.00000000
  ---------------------------------------------------
  free energy    TOTEN  =       -23.99435931 eV

  energy without entropy =      -23.99435931  energy(sigma->0) =      -23.99435931


--------------------------------------------------------------------------------------------------------




 average (electrostatic) potential at core
  the test charge radii are     0.5201  0.6991
  (the norm of the test charge is              1.0000)
       1 -41.4092       2 -41.4482       3 -41.3861       4 -41.2870       5 -58.0890
 
 
 
 E-fermi :  -8.1737     XC(G=0):  -0.6828     alpha+bet : -0.2012


 k-point     1 :       0.2500    0.2500    0.2500
  band No.  band energies     occupation 
      1     -16.7420      2.00000
      2      -9.2914      2.00000
      3      -9.2243      2.00000
      4      -9.1286      2.00000
      5      -0.3490      0.00000
      6       0.5247      0.00000
      7       0.6451      0.00000
      8       0.6739      0.00000

 k-point     2 :      -0.2500    0.2500    0.2500
  band No.  band energies     occupation 
      1     -16.7420      2.00000
      2      -9.2913      2.00000
      3      -9.2244      2.00000
      4      -9.1286      2.00000
      5      -0.3446      0.00000
      6       0.5155      0.00000
      7       0.6271      0.00000
      8       0.6633      0.00000

 k-point     3 :       0.2500   -0.2500    0.2500
  band No.  band energies     occupation 
      1     -16.7421      2.00000
      2      -9.2914      2.00000
      3      -9.2244      2.00000
      4      -9.1288      2.00000
      5      -0.3491      0.00000
      6       0.5245      0.00000
      7       0.6432      0.00000
      8       0.6737      0.00000

 k-point     4 :      -0.2500   -0.2500    0.2500
  band No.  band energies     occupation 
      1     -16.7420      2.00000
      2      -9.2913      2.00000
      3      -9.2243      2.00000
      4      -9.1285      2.00000
      5      -0.3514      0.00000
      6       0.5289      0.00000
      7       0.6526      0.00000
      8       0.6802      0.00000


--------------------------------------------------------------------------------------------------------


 soft charge-density along one line, spin component           1
         0         1         2         3         4         5         6         7         8         9
 total charge-density along one line
 
 pseudopotential strength for first ion, spin component:           1
 -2.340  -4.032  -0.001  -0.001   0.001
 -4.032  -6.862  -0.003  -0.004   0.002
 -0.001  -0.003  -0.338   0.002  -0.001
 -0.001  -0.004   0.002  -0.337  -0.001
  0.001   0.002  -0.001  -0.001  -0.339
 total augmentation occupancy for first ion, spin component:           1
  3.494  -0.631   0.222   0.329  -0.123
 -0.631   0.128  -0.042  -0.061   0.023
  0.222  -0.042   0.020   0.018  -0.007
  0.329  -0.061   0.018   0.034  -0.010
 -0.123   0.023  -0.007  -0.010   0.012


------------------------ aborting loop because EDIFF is reached ----------------------------------------


    CHARGE:  cpu time    0.0200: real time    0.0200
    FORLOC:  cpu time    0.0135: real time    0.0135
    FORNL :  cpu time    0.0210: real time    0.0211
    STRESS:  cpu time    0.1589: real time    0.1604
    FORCOR:  cpu time    0.1448: real time    0.1448
    FORHAR:  cpu time    0.0454: real time    0.0454
    MIXING:  cpu time    0.0066: real time    0.0066
    OFIELD:  cpu time    0.0000: real time    0.0000

  FORCE on cell =-STRESS in cart. coord.  units (eV):
  Direction    XX          YY          ZZ          XY          YZ          ZX
  --------------------------------------------------------------------------------------
  Alpha Z     0.23137     0.23137     0.23137
  Ewald      42.99578    41.82981    41.29625     1.90502    -0.96051    -0.30318
  Hartree    94.83667    94.56320    92.98012     0.74247    -0.67207     0.04984
  E(xc)     -26.98672   -26.98591   -26.97323     0.00941    -0.00750    -0.00082
  Local    -196.66009  -195.57346  -193.26344    -2.38394     1.66287     0.13689
  n-local   -15.46843   -15.40642   -15.38426     0.01240    -0.04374     0.01667
  augment     0.12322     0.12646     0.12568    -0.00159    -0.00086     0.00100
  Kinetic   100.05842    99.94174    99.33753    -0.47096     0.40981     0.00927
  Fock        0.00000     0.00000     0.00000     0.00000     0.00000     0.00000
  -------------------------------------------------------------------------------------
  Total      -0.86979    -1.27320    -1.64997    -0.18720     0.38800    -0.09032
  in kB      -1.33099    -1.94830    -2.52485    -0.28646     0.59373    -0.13821
  external pressure =       -1.93 kB  Pullay stress =        0.00 kB

  kinetic pressure (ideal gas correction) =      0.00 kB
  total pressure  =     -1.93 kB
  Total+kin.    -1.331      -1.948      -2.525      -0.286       0.594      -0.138

 VOLUME and BASIS-vectors are now :
 -----------------------------------------------------------------------------
  energy-cutoff  :      400.00
  volume of cell :     1047.01
      direct lattice vectors                 reciprocal lattice vectors
    10.075102291  0.000000000  0.000000000     0.099254575 -0.001981613 -0.000726651
     0.201684263 10.101915579  0.000000000     0.000000000  0.098991126  0.002213862
     0.070720321 -0.230065972 10.287220218     0.000000000  0.000000000  0.097207990

  length of vectors
    10.075102291 10.103928687 10.290035546     0.099277014  0.099015879  0.097207990


 FORCES acting on ions
    electron-ion (+dipol)            ewald-force                    non-local-force                 convergence-correction
 -----------------------------------------------------------------------------------------------
   -.155E+02 0.278E+02 0.410E+02   0.170E+02 -.305E+02 -.448E+02   -.156E+01 0.282E+01 0.421E+01   0.121E-03 -.242E-03 -.380E-03
   0.517E+02 -.617E+01 0.328E+01   -.567E+02 0.685E+01 -.357E+01   0.533E+01 -.608E+00 0.358E+00   -.451E-03 0.505E-04 -.450E-04
   -.236E+02 -.459E+02 0.142E+01   0.257E+02 0.499E+02 -.147E+01   -.239E+01 -.464E+01 0.177E+00   0.200E-03 0.413E-03 -.285E-04
   -.109E+02 0.244E+02 -.434E+02   0.118E+02 -.262E+02 0.468E+02   -.104E+01 0.241E+01 -.427E+01   0.885E-04 -.227E-03 0.399E-03
   -.197E+01 -.332E-01 -.275E+01   0.221E+01 -.138E-01 0.307E+01   -.607E-02 -.132E+00 -.898E-02   -.885E-04 -.254E-04 -.119E-03
 -----------------------------------------------------------------------------------------------
   -.333E+00 0.152E+00 -.459E+00   0.178E-14 -.356E-14 0.711E-14   0.333E+00 -.152E+00 0.459E+00   -.130E-03 -.311E-04 -.173E-03
 
 
 POSITION                                       TOTAL-FORCE (eV/Angst)
 -----------------------------------------------------------------------------------
      5.52920      4.02539      3.70454        -0.046029      0.142009      0.426830
      4.10330      4.75041      4.51105         0.266370      0.070899      0.065721
      5.70963      5.61399      4.54957        -0.322611     -0.555366      0.128089
      5.43904      4.07744      5.54737        -0.127580      0.521625     -0.939327
      5.19898      4.62075      4.58280         0.229572     -0.179498      0.318612
 -----------------------------------------------------------------------------------
    total drift:                               -0.000278     -0.000331     -0.000075


--------------------------------------------------------------------------------------------------------



  FREE ENERGIE OF THE ION-ELECTRON SYSTEM (eV)
  ---------------------------------------------------
  free  energy   TOTEN  =       -23.99435931 eV

  energy  without entropy=      -23.99435931  energy(sigma->0) =      -23.99435931
 


--------------------------------------------------------------------------------------------------------


    POTLOK:  cpu time    0.1473: real time    0.1473


--------------------------------------------------------------------------------------------------------


           RANDOM_SEED =         172317693                0                0
           RANDOM_SEED =         172317693               30                0
   IONSTEP:  cpu time    0.0026: real time    0.0026

  ENERGY OF THE ELECTRON-ION-THERMOSTAT SYSTEM (eV)
  ---------------------------------------------------
% ion-electron   TOTEN  =       -23.994359  see above
  kinetic energy EKIN   =         0.000576
  kin. lattice  EKIN_LAT=         0.000000  (temperature    1.11 K)
  nose potential ES     =         0.000000
  nose kinetic   EPS    =         0.000000
  ---------------------------------------------------
  total energy   ETOTAL =       -23.993783 eV

  maximum distance moved by ions :      0.25E-03

    WAVPRE:  cpu time    0.0434: real time    0.0437
    FEWALD:  cpu time    0.0004: real time    0.0004
    ORTHCH:  cpu time    0.0090: real time    0.0090
     LOOP+:  cpu time    7.4712: real time    7.4964


--------------------------------------- Iteration      2(   1)  ---------------------------------------


    POTLOK:  cpu time    0.1465: real time    0.1469
    SETDIJ:  cpu time    0.0019: real time    0.0019
     EDDAV:  cpu time    0.2134: real time    0.2135
       DOS:  cpu time    0.0002: real time    0.0002
    CHARGE:  cpu time    0.0196: real time    0.0196
    MIXING:  cpu time    0.0064: real time    0.0065
    --------------------------------------------
      LOOP:  cpu time    0.3881: real time    0.3887

 eigenvalue-minimisations  :    96
 total energy-change (2. order) :-0.4480412E-02  (-0.5106235E-03)
 number of electron       8.0000001 magnetization 
 augmentation part        0.1804410 magnetization 

 Broyden mixing:
  rms(total) = 0.39132E-02    rms(broyden)= 0.39113E-02
  rms(prec ) = 0.51912E-02
  weight for this iteration     100.00

 Free energy of the ion-electron system (eV)
  ---------------------------------------------------
  alpha Z        PSCENC =         0.23137369
  Ewald energy   TEWEN  =       126.44649918
  -Hartree energ DENC   =      -282.56919988
  -exchange      EXHF   =         0.00000000
  -V(xc)+E(xc)   XCENC  =        24.53987399
  PAW double counting   =       440.49035731     -441.26216187
  entropy T*S    EENTRO =        -0.00000000
  eigenvalues    EBANDS =       -88.91733623
  atomic energy  EATOM  =       197.04175453
  Solvation  Ediel_sol  =         0.00000000
  ---------------------------------------------------
  free energy    TOTEN  =       -23.99883928 eV

  energy without entropy =      -23.99883928  energy(sigma->0) =      -23.99883928


--------------------------------------------------------------------------------------------------------




--------------------------------------- Iteration      2(   2)  ---------------------------------------


    POTLOK:  cpu time    0.1510: real time    0.1515
    SETDIJ:  cpu time    0.0022: real time    0.0022
    EDDIAG:  cpu time    0.0420: real time    0.0423
  RMM-DIIS:  cpu time    0.1671: real time    0.1672
    ORTHCH:  cpu time    0.0019: real time    0.0019
       DOS:  cpu time    0.0003: real time    0.0003
    CHARGE:  cpu time    0.0197: real time    0.0198
    MIXING:  cpu time    0.0046: real time    0.0046
    --------------------------------------------
      LOOP:  cpu time    0.3887: real time    0.3896

 eigenvalue-minimisations  :    64
 total energy-change (2. order) : 0.4562074E-04  (-0.1532072E-04)
 number of electron       8.0000001 magnetization 
 augmentation part        0.1803541 magnetization 

 Broyden mixing:
  rms(total) = 0.15964E-02    rms(broyden)= 0.15962E-02
  rms(prec ) = 0.19517E-02
  weight for this iteration     100.00

 eigenvalues of (default mixing * dielectric matrix)
  average eigenvalue GAMMA=   1.5035
  1.5035

 Free energy of the ion-electron system (eV)
  ---------------------------------------------------
  alpha Z        PSCENC =         0.23137369
  Ewald energy   TEWEN  =       126.44649918
  -Hartree energ DENC   =      -282.63860015
  -exchange      EXHF   =         0.00000000
  -V(xc)+E(xc)   XCENC  =        24.54355220
  PAW double counting   =       441.28957315     -442.06219134
  entropy T*S    EENTRO =        -0.00000000
  eigenvalues    EBANDS =       -88.85075492
  atomic energy  EATOM  =       197.04175453
  Solvation  Ediel_sol  =         0.00000000
  ---------------------------------------------------
  free energy    TOTEN  =       -23.99879366 eV

  energy without entropy =      -23.99879366  energy(sigma->0) =      -23.99879366


--------------------------------------------------------------------------------------------------------




--------------------------------------- Iteration      2(   3)  ---------------------------------------


    POTLOK:  cpu time    0.1500: real time    0.1502
    SETDIJ:  cpu time    0.0022: real time    0.0022
    EDDIAG:  cpu time    0.0414: real time    0.0414
  RMM-DIIS:  cpu time    0.1678: real time    0.1679
    ORTHCH:  cpu time    0.0016: real time    0.0016
       DOS:  cpu time    0.0003: real time    0.0003
    CHARGE:  cpu time    0.0197: real time    0.0200
    MIXING:  cpu time    0.0047: real time    0.0047
    --------------------------------------------
      LOOP:  cpu time    0.3877: real time    0.3883

 eigenvalue-minimisations  :    64
 total energy-change (2. order) :-0.1238727E-06  (-0.5816867E-05)
 number of electron       8.0000001 magnetization 
 augmentation part        0.1802990 magnetization 

 Broyden mixing:
  rms(total) = 0.74845E-03    rms(broyden)= 0.74796E-03
  rms(prec ) = 0.84009E-03
  weight for this iteration     100.00

 eigenvalues of (default mixing * dielectric matrix)
  average eigenvalue GAMMA=   1.8666
  1.8666  1.8666

 Free energy of the ion-electron system (eV)
  ---------------------------------------------------
  alpha Z        PSCENC =         0.23137369
  Ewald energy   TEWEN  =       126.44649918
  -Hartree energ DENC   =      -282.67084818
  -exchange      EXHF   =         0.00000000
  -V(xc)+E(xc)   XCENC  =        24.54541045
  PAW double counting   =       441.89261630     -442.66562158
  entropy T*S    EENTRO =        -0.00000000
  eigenvalues    EBANDS =       -88.81997817
  atomic energy  EATOM  =       197.04175453
  Solvation  Ediel_sol  =         0.00000000
  ---------------------------------------------------
  free energy    TOTEN  =       -23.99879379 eV

  energy without entropy =      -23.99879379  energy(sigma->0) =      -23.99879379


--------------------------------------------------------------------------------------------------------




--------------------------------------- Iteration      2(   4)  ---------------------------------------


    POTLOK:  cpu time    0.1517: real time    0.1519
    SETDIJ:  cpu time    0.0021: real time    0.0021
    EDDIAG:  cpu time    0.0418: real time    0.0418
  RMM-DIIS:  cpu time    0.1699: real time    0.1705
    ORTHCH:  cpu time    0.0016: real time    0.0016
       DOS:  cpu time    0.0002: real time    0.0002
    --------------------------------------------
      LOOP:  cpu time    0.3671: real time    0.3679

 eigenvalue-minimisations  :    64
 total energy-change (2. order) :-0.6036778E-06  (-0.3962482E-06)
 number of electron       8.0000001 magnetization 
 augmentation part        0.1802990 magnetization 

 Free energy of the ion-electron system (eV)
  ---------------------------------------------------
  alpha Z        PSCENC =         0.23137369
  Ewald energy   TEWEN  =       126.44649918
  -Hartree energ DENC   =      -282.65852866
  -exchange      EXHF   =         0.00000000
  -V(xc)+E(xc)   XCENC  =        24.54506477
  PAW double counting   =       442.21317649     -442.98600533
  entropy T*S    EENTRO =        -0.00000000
  eigenvalues    EBANDS =       -88.83212905
  atomic energy  EATOM  =       197.04175453
  Solvation  Ediel_sol  =         0.00000000
  ---------------------------------------------------
  free energy    TOTEN  =       -23.99879439 eV

  energy without entropy =      -23.99879439  energy(sigma->0) =      -23.99879439


--------------------------------------------------------------------------------------------------------




 average (electrostatic) potential at core
  the test charge radii are     0.5201  0.6991
  (the norm of the test charge is              1.0000)
       1 -41.4148       2 -41.4507       3 -41.3949       4 -41.3024       5 -58.0819
 
 
 
 E-fermi :  -8.1843     XC(G=0):  -0.6983     alpha+bet : -0.2012


 k-point     1 :       0.2500    0.2500    0.2500
  band No.  band energies     occupation 
      1     -16.7532      2.00000
      2      -9.2962      2.00000
      3      -9.2311      2.00000
      4      -9.1355      2.00000
      5      -0.3514      0.00000
      6       0.5124      0.00000
      7       0.6366      0.00000
      8       0.6635      0.00000

 k-point     2 :      -0.2500    0.2500    0.2500
  band No.  band energies     occupation 
      1     -16.7532      2.00000
      2      -9.2961      2.00000
      3      -9.2312      2.00000
      4      -9.1355      2.00000
      5      -0.3468      0.00000
      6       0.5023      0.00000
      7       0.6193      0.00000
      8       0.6521      0.00000

 k-point     3 :       0.2500   -0.2500    0.2500
  band No.  band energies     occupation 
      1     -16.7532      2.00000
      2      -9.2962      2.00000
      3      -9.2312      2.00000
      4      -9.1357      2.00000
      5      -0.3515      0.00000
      6       0.5115      0.00000
      7       0.6352      0.00000
      8       0.6634      0.00000

 k-point     4 :      -0.2500   -0.2500    0.2500
  band No.  band energies     occupation 
      1     -16.7532      2.00000
      2      -9.2961      2.00000
      3      -9.2311      2.00000
      4      -9.1355      2.00000
      5      -0.3538      0.00000
      6       0.5165      0.00000
      7       0.6440      0.00000
      8       0.6701      0.00000


--------------------------------------------------------------------------------------------------------


 soft charge-density along one line, spin component           1
         0         1         2         3         4         5         6         7         8         9
 total charge-density along one line
 
 pseudopotential strength for first ion, spin component:           1
 -2.340  -4.033  -0.001  -0.001   0.001
 -4.033  -6.862  -0.003  -0.004   0.002
 -0.001  -0.003  -0.338   0.002  -0.001
 -0.001  -0.004   0.002  -0.336  -0.001
  0.001   0.002  -0.001  -0.001  -0.339
 total augmentation occupancy for first ion, spin component:           1
  3.498  -0.632   0.222   0.329  -0.123
 -0.632   0.128  -0.042  -0.061   0.023
  0.222  -0.042   0.020   0.018  -0.007
  0.329  -0.061   0.018   0.034  -0.010
 -0.123   0.023  -0.007  -0.010   0.012


------------------------ aborting loop because EDIFF is reached ----------------------------------------


    CHARGE:  cpu time    0.0201: real time    0.0201
    FORLOC:  cpu time    0.0136: real time    0.0136
    FORNL :  cpu time    0.0207: real time    0.0214
    STRESS:  cpu time    0.1608: real time    0.1609
    FORCOR:  cpu time    0.1475: real time    0.1476
    FORHAR:  cpu time    0.0489: real time    0.0489
    MIXING:  cpu time    0.0062: real time    0.0062
    OFIELD:  cpu time    0.0000: real time    0.0000

  FORCE on cell =-STRESS in cart. coord.  units (eV):
  Direction    XX          YY          ZZ          XY          YZ          ZX
  --------------------------------------------------------------------------------------
  Alpha Z     0.23137     0.23137     0.23137
  Ewald      43.07117    41.96567    41.40964     1.88127    -0.97815    -0.28538
  Hartree    94.94632    94.66343    93.06221     0.73293    -0.66059     0.04904
  E(xc)     -27.00259   -27.00191   -26.98954     0.00920    -0.00728    -0.00083
  Local    -196.84842  -195.78533  -193.43137    -2.35216     1.65510     0.12635
  n-local   -15.49963   -15.44139   -15.42064     0.01188    -0.04122     0.01568
  augment     0.12277     0.12577     0.12495    -0.00160    -0.00073     0.00095
  Kinetic   100.14638   100.03753    99.44808    -0.46164     0.39826     0.01109
  Fock        0.00000     0.00000     0.00000     0.00000     0.00000     0.00000
  -------------------------------------------------------------------------------------
  Total      -0.83263    -1.20486    -1.56531    -0.18011     0.36539    -0.08311
  in kB      -1.27413    -1.84372    -2.39530    -0.27561     0.55914    -0.12718
  external pressure =       -1.84 kB  Pullay stress =        0.00 kB

  kinetic pressure (ideal gas correction) =      0.00 kB
  total pressure  =     -1.84 kB
  Total+kin.    -1.273      -1.841      -2.391      -0.275       0.557      -0.127

 VOLUME and BASIS-vectors are now :
 -----------------------------------------------------------------------------
  energy-cutoff  :      400.00
  volume of cell :     1047.01
      direct lattice vectors                 reciprocal lattice vectors
    10.075102291  0.000000000  0.000000000     0.099254575 -0.001981613 -0.000726651
     0.201684263 10.101915579  0.000000000     0.000000000  0.098991126  0.002213862
     0.070720321 -0.230065972 10.287220218     0.000000000  0.000000000  0.097207990

  length of vectors
    10.075102291 10.103928687 10.290035546     0.099277014  0.099015879  0.097207990


 FORCES acting on ions
    electron-ion (+dipol)            ewald-force                    non-local-force                 convergence-correction
 -----------------------------------------------------------------------------------------------
   -.156E+02 0.279E+02 0.411E+02   0.171E+02 -.306E+02 -.449E+02   -.156E+01 0.283E+01 0.422E+01   0.465E-03 -.730E-03 -.943E-03
   0.517E+02 -.619E+01 0.328E+01   -.568E+02 0.687E+01 -.358E+01   0.534E+01 -.611E+00 0.358E+00   -.122E-02 0.124E-03 0.197E-04
   -.237E+02 -.459E+02 0.141E+01   0.258E+02 0.501E+02 -.147E+01   -.240E+01 -.466E+01 0.177E+00   0.688E-03 0.117E-02 0.696E-04
   -.109E+02 0.244E+02 -.435E+02   0.118E+02 -.264E+02 0.470E+02   -.105E+01 0.242E+01 -.430E+01   0.369E-03 -.683E-03 0.128E-02
   -.189E+01 -.509E-01 -.264E+01   0.212E+01 0.694E-02 0.295E+01   -.175E-01 -.127E+00 -.231E-01   0.169E-03 -.460E-04 0.246E-03
 -----------------------------------------------------------------------------------------------
   -.307E+00 0.143E+00 -.425E+00   0.178E-14 -.434E-17 0.000E+00   0.306E+00 -.143E+00 0.424E+00   0.474E-03 -.167E-03 0.675E-03
 
 
 POSITION                                       TOTAL-FORCE (eV/Angst)
 -----------------------------------------------------------------------------------
      5.52909      4.02573      3.70557        -0.038684      0.127431      0.400676
      4.10394      4.75058      4.51121         0.247940      0.071367      0.063175
      5.70885      5.61265      4.54988        -0.301528     -0.515237      0.124531
[...]
 -----------------------------------------------------------------------------------------------
   0.309E+00 -.103E+00 0.437E+00   0.180E-14 0.355E-14 -.711E-14   -.309E+00 0.104E+00 -.436E+00   0.590E-04 -.274E-04 -.484E-04
 
 
 POSITION                                       TOTAL-FORCE (eV/Angst)
 -----------------------------------------------------------------------------------
      5.52844      4.03128      3.72999         0.126072     -0.199662     -0.218608
      4.11840      4.75671      4.51572        -0.174887      0.065857      0.005084
      5.69109      5.58381      4.55907         0.208535      0.442520      0.029805
      5.43419      4.10666      5.49463         0.231462     -0.410922      0.735648
      5.19974      4.61981      4.58389        -0.391213      0.102580     -0.551740
 -----------------------------------------------------------------------------------
    total drift:                               -0.000031      0.000374      0.000189


--------------------------------------------------------------------------------------------------------



  FREE ENERGIE OF THE ION-ELECTRON SYSTEM (eV)
  ---------------------------------------------------
  free  energy   TOTEN  =       -24.01240320 eV

  energy  without entropy=      -24.01240320  energy(sigma->0) =      -24.01240320
 
 d Force =-0.8313408E-02[-0.101E-01,-0.652E-02]  d Energy =-0.8300116E-02-0.133E-04
 d Force =-0.1047287E+01[-0.105E+01,-0.104E+01]  d Ewald  =-0.1047273E+01-0.134E-04


--------------------------------------------------------------------------------------------------------


    POTLOK:  cpu time    0.1453: real time    0.1456


--------------------------------------------------------------------------------------------------------


           RANDOM_SEED =         172317693               30                0
   IONSTEP:  cpu time    0.0001: real time    0.0001

  ENERGY OF THE ELECTRON-ION-THERMOSTAT SYSTEM (eV)
  ---------------------------------------------------
% ion-electron   TOTEN  =       -24.012403  see above
  kinetic energy EKIN   =         0.018309
  kin. lattice  EKIN_LAT=         0.000000  (temperature   35.41 K)
  nose potential ES     =         0.000000
  nose kinetic   EPS    =         0.000000
  ---------------------------------------------------
  total energy   ETOTAL =       -23.994094 eV

  maximum distance moved by ions :      0.58E-03

    WAVPRE:  cpu time    0.0497: real time    0.0500
    FEWALD:  cpu time    0.0005: real time    0.0005
    ORTHCH:  cpu time    0.0089: real time    0.0089
 Prediction of Wavefunctions ALPHA= 2.234 BETA=-1.274
     LOOP+:  cpu time    2.0117: real time    2.0175


--------------------------------------- Iteration     10(   1)  ---------------------------------------


    POTLOK:  cpu time    0.1432: real time    0.1433
    SETDIJ:  cpu time    0.0025: real time    0.0024
     EDDAV:  cpu time    0.1996: real time    0.2009
       DOS:  cpu time    0.0003: real time    0.0003
    CHARGE:  cpu time    0.0195: real time    0.0195
    MIXING:  cpu time    0.0044: real time    0.0044
    --------------------------------------------
      LOOP:  cpu time    0.3695: real time    0.3709

 eigenvalue-minimisations  :    88
 total energy-change (2. order) : 0.8272619E-02  (-0.5925439E-04)
 number of electron       8.0000002 magnetization 
 augmentation part        0.1899979 magnetization 

 Broyden mixing:
  rms(total) = 0.29682E-03    rms(broyden)= 0.29593E-03
  rms(prec ) = 0.31469E-03
  weight for this iteration     100.00

 Free energy of the ion-electron system (eV)
  ---------------------------------------------------
  alpha Z        PSCENC =         0.23137369
  Ewald energy   TEWEN  =       134.63362770
  -Hartree energ DENC   =      -289.86427794
  -exchange      EXHF   =         0.00000000
  -V(xc)+E(xc)   XCENC  =        24.92608132
  PAW double counting   =       491.73390921     -492.53558892
  entropy T*S    EENTRO =        -0.00000000
  eigenvalues    EBANDS =       -90.17100992
  atomic energy  EATOM  =       197.04175453
  Solvation  Ediel_sol  =         0.00000000
  ---------------------------------------------------
  free energy    TOTEN  =       -24.00413033 eV

  energy without entropy =      -24.00413033  energy(sigma->0) =      -24.00413033


--------------------------------------------------------------------------------------------------------




--------------------------------------- Iteration     10(   2)  ---------------------------------------


    POTLOK:  cpu time    0.1409: real time    0.1413
    SETDIJ:  cpu time    0.0022: real time    0.0022
    EDDIAG:  cpu time    0.0415: real time    0.0415
  RMM-DIIS:  cpu time    0.1687: real time    0.1688
    ORTHCH:  cpu time    0.0016: real time    0.0016
       DOS:  cpu time    0.0002: real time    0.0002
    CHARGE:  cpu time    0.0201: real time    0.0201
    MIXING:  cpu time    0.0045: real time    0.0045
    --------------------------------------------
      LOOP:  cpu time    0.3796: real time    0.3802

 eigenvalue-minimisations  :    64
 total energy-change (2. order) :-0.1175156E-05  (-0.1216397E-05)
 number of electron       8.0000002 magnetization 
 augmentation part        0.1900059 magnetization 

 Broyden mixing:
  rms(total) = 0.24855E-03    rms(broyden)= 0.24818E-03
  rms(prec ) = 0.26073E-03
  weight for this iteration     100.00

 eigenvalues of (default mixing * dielectric matrix)
  average eigenvalue GAMMA=   0.5657
  0.5657

 Free energy of the ion-electron system (eV)
  ---------------------------------------------------
  alpha Z        PSCENC =         0.23137369
  Ewald energy   TEWEN  =       134.63362770
  -Hartree energ DENC   =      -289.86285624
  -exchange      EXHF   =         0.00000000
  -V(xc)+E(xc)   XCENC  =        24.92599472
  PAW double counting   =       491.76420022     -492.56583608
  entropy T*S    EENTRO =        -0.00000000
  eigenvalues    EBANDS =       -90.17239006
  atomic energy  EATOM  =       197.04175453
  Solvation  Ediel_sol  =         0.00000000
  ---------------------------------------------------
  free energy    TOTEN  =       -24.00413151 eV

  energy without entropy =      -24.00413151  energy(sigma->0) =      -24.00413151


--------------------------------------------------------------------------------------------------------




--------------------------------------- Iteration     10(   3)  ---------------------------------------


    POTLOK:  cpu time    0.1422: real time    0.1427
    SETDIJ:  cpu time    0.0021: real time    0.0021
    EDDIAG:  cpu time    0.0416: real time    0.0417
  RMM-DIIS:  cpu time    0.1353: real time    0.1354
    ORTHCH:  cpu time    0.0015: real time    0.0015
       DOS:  cpu time    0.0002: real time    0.0002
    CHARGE:  cpu time    0.0198: real time    0.0198
    MIXING:  cpu time    0.0049: real time    0.0049
    --------------------------------------------
      LOOP:  cpu time    0.3476: real time    0.3482

 eigenvalue-minimisations  :    47
 total energy-change (2. order) : 0.1121117E-07  (-0.2022355E-07)
 number of electron       8.0000002 magnetization 
 augmentation part        0.1900065 magnetization 

 Broyden mixing:
  rms(total) = 0.20374E-03    rms(broyden)= 0.20371E-03
  rms(prec ) = 0.21274E-03
  weight for this iteration     100.00

 eigenvalues of (default mixing * dielectric matrix)
  average eigenvalue GAMMA=   1.6569
  1.1305  2.1834

 Free energy of the ion-electron system (eV)
  ---------------------------------------------------
  alpha Z        PSCENC =         0.23137369
  Ewald energy   TEWEN  =       134.63362770
  -Hartree energ DENC   =      -289.86252319
  -exchange      EXHF   =         0.00000000
  -V(xc)+E(xc)   XCENC  =        24.92598776
  PAW double counting   =       491.72393549     -492.52556855
  entropy T*S    EENTRO =        -0.00000000
  eigenvalues    EBANDS =       -90.17271893
  atomic energy  EATOM  =       197.04175453
  Solvation  Ediel_sol  =         0.00000000
  ---------------------------------------------------
  free energy    TOTEN  =       -24.00413150 eV

  energy without entropy =      -24.00413150  energy(sigma->0) =      -24.00413150


--------------------------------------------------------------------------------------------------------




--------------------------------------- Iteration     10(   4)  ---------------------------------------


    POTLOK:  cpu time    0.1418: real time    0.1424
    SETDIJ:  cpu time    0.0024: real time    0.0024
    EDDIAG:  cpu time    0.0413: real time    0.0413
  RMM-DIIS:  cpu time    0.1361: real time    0.1366
    ORTHCH:  cpu time    0.0016: real time    0.0016
       DOS:  cpu time    0.0002: real time    0.0002
    --------------------------------------------
      LOOP:  cpu time    0.3234: real time    0.3245

 eigenvalue-minimisations  :    48
 total energy-change (2. order) :-0.2572853E-06  (-0.1127646E-07)
 number of electron       8.0000002 magnetization 
 augmentation part        0.1900065 magnetization 

 Free energy of the ion-electron system (eV)
  ---------------------------------------------------
  alpha Z        PSCENC =         0.23137369
  Ewald energy   TEWEN  =       134.63362770
  -Hartree energ DENC   =      -289.86190605
  -exchange      EXHF   =         0.00000000
  -V(xc)+E(xc)   XCENC  =        24.92598877
  PAW double counting   =       491.58711984     -492.38875111
  entropy T*S    EENTRO =        -0.00000000
  eigenvalues    EBANDS =       -90.17333912
  atomic energy  EATOM  =       197.04175453
  Solvation  Ediel_sol  =         0.00000000
  ---------------------------------------------------
  free energy    TOTEN  =       -24.00413176 eV

  energy without entropy =      -24.00413176  energy(sigma->0) =      -24.00413176


--------------------------------------------------------------------------------------------------------




 average (electrostatic) potential at core
  the test charge radii are     0.5201  0.6991
  (the norm of the test charge is              1.0000)
       1 -41.5580       2 -41.5156       3 -41.6206       4 -41.7403       5 -57.8665
 
 
 
 E-fermi :  -8.3028     XC(G=0):  -0.6500     alpha+bet : -0.2012


 k-point     1 :       0.2500    0.2500    0.2500
  band No.  band energies     occupation 
      1     -17.0161      2.00000
      2      -9.4378      2.00000
      3      -9.3480      2.00000
      4      -9.2848      2.00000
      5      -0.2934      0.00000
      6       0.5661      0.00000
      7       0.6736      0.00000
      8       0.6933      0.00000

 k-point     2 :      -0.2500    0.2500    0.2500
  band No.  band energies     occupation 
      1     -17.0161      2.00000
      2      -9.4378      2.00000
      3      -9.3480      2.00000
      4      -9.2848      2.00000
      5      -0.2883      0.00000
      6       0.5537      0.00000
      7       0.6571      0.00000
      8       0.6820      0.00000

 k-point     3 :       0.2500   -0.2500    0.2500
  band No.  band energies     occupation 
      1     -17.0161      2.00000
      2      -9.4378      2.00000
      3      -9.3481      2.00000
      4      -9.2849      2.00000
      5      -0.2938      0.00000
      6       0.5682      0.00000
      7       0.6716      0.00000
      8       0.6935      0.00000

 k-point     4 :      -0.2500   -0.2500    0.2500
  band No.  band energies     occupation 
      1     -17.0161      2.00000
      2      -9.4378      2.00000
      3      -9.3480      2.00000
      4      -9.2847      2.00000
      5      -0.2963      0.00000
      6       0.5750      0.00000
      7       0.6774      0.00000
      8       0.6999      0.00000


--------------------------------------------------------------------------------------------------------


 soft charge-density along one line, spin component           1
         0         1         2         3         4         5         6         7         8         9
 total charge-density along one line
 
 pseudopotential strength for first ion, spin component:           1
 -2.341  -4.035  -0.001  -0.001   0.001
 -4.035  -6.866  -0.003  -0.004   0.002
 -0.001  -0.003  -0.337   0.002  -0.001
 -0.001  -0.004   0.002  -0.335  -0.001
  0.001   0.002  -0.001  -0.001  -0.338
 total augmentation occupancy for first ion, spin component:           1
  3.586  -0.644   0.240   0.347  -0.134
 -0.644   0.130  -0.044  -0.064   0.025
  0.240  -0.044   0.023   0.019  -0.007
  0.347  -0.064   0.019   0.037  -0.011
 -0.134   0.025  -0.007  -0.011   0.014


------------------------ aborting loop because EDIFF is reached ----------------------------------------


    CHARGE:  cpu time    0.0201: real time    0.0202
    FORLOC:  cpu time    0.0134: real time    0.0134
    FORNL :  cpu time    0.0212: real time    0.0212
    STRESS:  cpu time    0.1598: real time    0.1599
    FORCOR:  cpu time    0.1479: real time    0.1480
    FORHAR:  cpu time    0.0484: real time    0.0485
    MIXING:  cpu time    0.0051: real time    0.0051
    OFIELD:  cpu time    0.0001: real time    0.0001

  FORCE on cell =-STRESS in cart. coord.  units (eV):
  Direction    XX          YY          ZZ          XY          YZ          ZX
  --------------------------------------------------------------------------------------
  Alpha Z     0.23137     0.23137     0.23137
  Ewald      45.09792    45.62044    43.91524     0.80344    -1.15694     0.29508
  Hartree    97.66946    97.21300    94.97990     0.38154    -0.30236     0.05278
  E(xc)     -27.40916   -27.41092   -27.40986     0.00215    -0.00017    -0.00076
  Local    -201.63809  -201.28680  -197.13283    -1.06595     1.13032    -0.23956
  n-local   -16.28234   -16.32231   -16.34109    -0.00160     0.02677    -0.01136
  augment     0.11110     0.10652     0.10409    -0.00092     0.00354    -0.00124
  Kinetic   102.30954   102.38080   102.33658    -0.11197     0.01665     0.03353
  Fock        0.00000     0.00000     0.00000     0.00000     0.00000     0.00000
  -------------------------------------------------------------------------------------
  Total       0.08981     0.53211     0.68340     0.00668    -0.28219     0.12846
  in kB       0.13742     0.81425     1.04577     0.01022    -0.43181     0.19657
  external pressure =        0.67 kB  Pullay stress =        0.00 kB

  kinetic pressure (ideal gas correction) =      0.01 kB
  total pressure  =      0.68 kB
  Total+kin.     0.142       0.826       1.073       0.017      -0.444       0.195

 VOLUME and BASIS-vectors are now :
 -----------------------------------------------------------------------------
  energy-cutoff  :      400.00
  volume of cell :     1047.01
      direct lattice vectors                 reciprocal lattice vectors
    10.075102291  0.000000000  0.000000000     0.099254575 -0.001981613 -0.000726651
     0.201684263 10.101915579  0.000000000     0.000000000  0.098991126  0.002213862
     0.070720321 -0.230065972 10.287220218     0.000000000  0.000000000  0.097207990

  length of vectors
    10.075102291 10.103928687 10.290035546     0.099277014  0.099015879  0.097207990


 FORCES acting on ions
    electron-ion (+dipol)            ewald-force                    non-local-force                 convergence-correction
 -----------------------------------------------------------------------------------------------
   -.163E+02 0.291E+02 0.421E+02   0.182E+02 -.324E+02 -.468E+02   -.171E+01 0.306E+01 0.443E+01   0.185E-04 -.374E-04 -.874E-04
   0.529E+02 -.682E+01 0.325E+01   -.586E+02 0.758E+01 -.360E+01   0.552E+01 -.702E+00 0.348E+00   -.769E-04 0.163E-04 -.314E-04
   -.245E+02 -.480E+02 0.109E+01   0.274E+02 0.537E+02 -.121E+01   -.261E+01 -.513E+01 0.130E+00   0.262E-04 0.756E-04 -.272E-04
   -.121E+02 0.261E+02 -.464E+02   0.136E+02 -.294E+02 0.524E+02   -.131E+01 0.286E+01 -.507E+01   0.205E-04 -.474E-04 0.706E-04
   0.345E+00 -.458E+00 0.494E+00   -.535E+00 0.556E+00 -.774E+00   -.259E+00 0.421E-01 -.362E+00   -.239E-04 0.652E-04 -.145E-03
 -----------------------------------------------------------------------------------------------
   0.369E+00 -.132E+00 0.525E+00   -.178E-14 -.711E-14 0.000E+00   -.369E+00 0.132E+00 -.525E+00   -.357E-04 0.724E-04 -.220E-03
 
 
 POSITION                                       TOTAL-FORCE (eV/Angst)
 -----------------------------------------------------------------------------------
      5.52907      4.03112      3.73328         0.141448     -0.231360     -0.293542
      4.12008      4.75827      4.51660        -0.226330      0.058826     -0.002582
      5.68899      5.58103      4.56099         0.268108      0.547160      0.014067
      5.43470      4.10953      5.48941         0.266806     -0.514406      0.924604
      5.19968      4.61969      4.58382        -0.450044      0.140233     -0.642395
 -----------------------------------------------------------------------------------
    total drift:                               -0.000012      0.000454      0.000152


--------------------------------------------------------------------------------------------------------



  FREE ENERGIE OF THE ION-ELECTRON SYSTEM (eV)
  ---------------------------------------------------
  free  energy   TOTEN  =       -24.00413176 eV

  energy  without entropy=      -24.00413176  energy(sigma->0) =      -24.00413176
 
 d Force =-0.8278047E-02[-0.930E-02,-0.726E-02]  d Energy =-0.8271448E-02-0.660E-05
 d Force =-0.7843406E+00[-0.787E+00,-0.782E+00]  d Ewald  =-0.7843364E+00-0.427E-05


--------------------------------------------------------------------------------------------------------


    POTLOK:  cpu time    0.1460: real time    0.1465


--------------------------------------------------------------------------------------------------------


           RANDOM_SEED =         172317693               30                0
   IONSTEP:  cpu time    0.0001: real time    0.0001

  ENERGY OF THE ELECTRON-ION-THERMOSTAT SYSTEM (eV)
  ---------------------------------------------------
% ion-electron   TOTEN  =       -24.004132  see above
  kinetic energy EKIN   =         0.010227
  kin. lattice  EKIN_LAT=         0.000000  (temperature   19.78 K)
  nose potential ES     =         0.000000
  nose kinetic   EPS    =         0.000000
  ---------------------------------------------------
  total energy   ETOTAL =       -23.993905 eV

  maximum distance moved by ions :      0.35E-03


 mean value of Nose-termostat <S>:     1.000 mean value of <T> :    36.198
 mean temperature <T/S>/<1/S>  :    36.198

    WAVPRE:  cpu time    0.0527: real time    0.0531
    FEWALD:  cpu time    0.0003: real time    0.0003
    ORTHCH:  cpu time    0.0089: real time    0.0089
 Prediction of Wavefunctions ALPHA= 2.147 BETA=-1.174
    POTLOK:  cpu time    0.1492: real time    0.1498
    EDDIAG:  cpu time    0.0421: real time    0.0422
     LOOP+:  cpu time    2.2400: real time    2.2460
    4ORBIT:  cpu time    0.0000: real time    0.0000

 total amount of memory used by VASP MPI-rank0    56762. kBytes
=======================================================================

   base      :      30000. kBytes
   nonl-proj :       2817. kBytes
   fftplans  :       8579. kBytes
   grid      :      13527. kBytes
   one-center:          6. kBytes
   wavefun   :       1833. kBytes
 
  
  
 General timing and accounting informations for this job:
 ========================================================
  
                  Total CPU time used (sec):       29.905
                            User time (sec):       28.143
                          System time (sec):        1.763
                         Elapsed time (sec):       30.256
  
                   Maximum memory used (kb):      177544.
                   Average memory used (kb):           0.
  
                          Minor page faults:       259071
                          Major page faults:            0
                 Voluntary context switches:           72
