 vasp.5.4.4.18Apr17-6-g9f103f2a35 (build Jul 09 2021 13:05:15) complex          
  
 executed on             LinuxIFC date 2021.11.04  19:02:37
 running on   16 total cores
 distrk:  each k-point on   16 cores,    1 groups
 distr:  one band on NCORES_PER_BAND=   4 cores,    4 groups


--------------------------------------------------------------------------------------------------------


 INCAR:
 POTCAR:    PAW_PBE H 15Jun2001                   
 POTCAR:    PAW_PBE C 08Apr2002                   
 POTCAR:    PAW_PBE H 15Jun2001                   
   VRHFIN =H: ultrasoft test                                                    
   LEXCH  = PE                                                                  
   EATOM  =    12.4884 eV,    0.9179 Ry                                         
                                                                                
   TITEL  = PAW_PBE H 15Jun2001                                                 
   LULTRA =        F    use ultrasoft PP ?                                      
   IUNSCR =        0    unscreen: 0-lin 1-nonlin 2-no                           
   RPACOR =    0.000    partial core radius                                     
   POMASS =    1.000; ZVAL   =    1.000    mass and valenz                      
   RCORE  =    1.100    outmost cutoff radius                                   
   RWIGS  =    0.700; RWIGS  =    0.370    wigner-seitz radius (au A)           
   ENMAX  =  250.000; ENMIN  =  200.000 eV                                      
   RCLOC  =    0.701    cutoff for local pot                                    
   LCOR   =        T    correct aug charges                                     
   LPAW   =        T    paw PP                                                  
   EAUG   =  400.000                                                            
   RMAX   =    1.123    core radius for proj-oper                               
   RAUG   =    1.200    factor for augmentation sphere                          
   RDEP   =    1.112    radius for radial grids                                 
   RDEPT  =    0.926    core radius for aug-charge                              
                                                                                
   Atomic configuration                                                         
    2 entries                                                                   
     n  l   j            E        occ.                                          
     1  0  0.50        -6.4927   1.0000                                         
     2  1  0.50        -3.4015   0.0000                                         
   Description                                                                  
     l       E           TYP  RCUT    TYP  RCUT                                 
     0     -6.4927494     23  1.100                                             
     0      6.8029130     23  1.100                                             
     1     -4.0817478     23  1.100                                             
  local pseudopotential read in
  atomic valenz-charges read in
  non local Contribution for L=           0  read in
    real space projection operators read in
  non local Contribution for L=           0  read in
    real space projection operators read in
  non local Contribution for L=           1  read in
    real space projection operators read in
    PAW grid and wavefunctions read in
 
   number of l-projection  operators is LMAX  =           3
   number of lm-projection operators is LMMAX =           5
 
 POTCAR:    PAW_PBE C 08Apr2002                   
   VRHFIN =C: s2p2                                                              
   LEXCH  = PE                                                                  
   EATOM  =   147.1560 eV,   10.8157 Ry                                         
                                                                                
   TITEL  = PAW_PBE C 08Apr2002                                                 
   LULTRA =        F    use ultrasoft PP ?                                      
   IUNSCR =        1    unscreen: 0-lin 1-nonlin 2-no                           
   RPACOR =    1.200    partial core radius                                     
   POMASS =   12.011; ZVAL   =    4.000    mass and valenz                      
   RCORE  =    1.500    outmost cutoff radius                                   
   RWIGS  =    1.630; RWIGS  =    0.863    wigner-seitz radius (au A)           
   ENMAX  =  400.000; ENMIN  =  300.000 eV                                      
   ICORE  =        2    local potential                                         
   LCOR   =        T    correct aug charges                                     
   LPAW   =        T    paw PP                                                  
   EAUG   =  644.873                                                            
   DEXC   =    0.000                                                            
   RMAX   =    1.529    core radius for proj-oper                               
   RAUG   =    1.300    factor for augmentation sphere                          
   RDEP   =    1.501    radius for radial grids                                 
   RDEPT  =    1.300    core radius for aug-charge                              
                                                                                
   Atomic configuration                                                         
    4 entries                                                                   
     n  l   j            E        occ.                                          
     1  0  0.50      -273.3789   2.0000                                         
     2  0  0.50       -13.7508   2.0000                                         
     2  1  0.50        -5.2854   2.0000                                         
     3  2  1.50        -5.4423   0.0000                                         
   Description                                                                  
     l       E           TYP  RCUT    TYP  RCUT                                 
     0    -13.7508458     23  1.200                                             
     0     -8.2022199     23  1.200                                             
     1     -5.2854383     23  1.500                                             
     1     34.0145650     23  1.500                                             
     2     -5.4423304      7  1.500                                             
  local pseudopotential read in
  partial core-charges read in
  partial kinetic energy density read in
  atomic valenz-charges read in
  non local Contribution for L=           0  read in
    real space projection operators read in
  non local Contribution for L=           0  read in
    real space projection operators read in
  non local Contribution for L=           1  read in
    real space projection operators read in
  non local Contribution for L=           1  read in
    real space projection operators read in
    PAW grid and wavefunctions read in
 
   number of l-projection  operators is LMAX  =           4
   number of lm-projection operators is LMMAX =           8
 
  PAW_PBE H 15Jun2001                   :
 energy of atom  1       EATOM=  -12.4884
 kinetic energy error for atom=    0.0098 (will be added to EATOM!!)
  PAW_PBE C 08Apr2002                   :
 energy of atom  2       EATOM= -147.1560
 kinetic energy error for atom=    0.0288 (will be added to EATOM!!)
 
 
 POSCAR:  H  C                                   
  positions in cartesian coordinates
  No initial velocities read in
 exchange correlation table for  LEXCH =        8
   RHO(1)=    0.500       N(1)  =     2000
   RHO(2)=  100.500       N(2)  =     4000
 


--------------------------------------------------------------------------------------------------------


 ion  position               nearest neighbor table
   1  0.538  0.407  0.361-   5 1.08
   2  0.394  0.481  0.438-   5 1.10
   3  0.552  0.565  0.442-   5 1.09
   4  0.528  0.416  0.539-   5 1.09
   5  0.504  0.467  0.445-   1 1.08   3 1.09   4 1.09   2 1.10
 

IMPORTANT INFORMATION: All symmetrisations will be switched off!
NOSYMM: (Re-)initialisation of all symmetry stuff for point group C_1.

 
 

Automatic generation of k-mesh.
 generate k-points for:    2    2    2
Space group operators:
 irot       det(A)        alpha          n_x          n_y          n_z        tau_x        tau_y        tau_z
    1     1.000000     0.000000     1.000000     0.000000     0.000000     0.000000     0.000000     0.000000
 
 Subroutine IBZKPT returns following result:
 ===========================================
 
 Found      4 irreducible k-points:
 
 Following reciprocal coordinates:
            Coordinates               Weight
  0.250000  0.250000  0.250000      2.000000
 -0.250000  0.250000  0.250000      2.000000
  0.250000 -0.250000  0.250000      2.000000
 -0.250000 -0.250000  0.250000      2.000000
 
 Following cartesian coordinates:
            Coordinates               Weight
  0.025185  0.025038  0.025855      2.000000
 -0.025185  0.025610  0.025422      2.000000
  0.025185 -0.025610  0.024860      2.000000
 -0.025185 -0.025038  0.024427      2.000000
 


--------------------------------------------------------------------------------------------------------




 Dimension of arrays:
   k-points           NKPTS =      4   k-points in BZ     NKDIM =      4   number of bands    NBANDS=      8
   number of dos      NEDOS =    301   number of ions     NIONS =      5
   non local maximal  LDIM  =      4   non local SUM 2l+1 LMDIM =      8
   total plane-waves  NPLWV = 313600
   max r-space proj   IRMAX =      1   max aug-charges    IRDMAX=   3997
   dimension x,y,z NGX =    70 NGY =   64 NGZ =   70
   dimension x,y,z NGXF=   140 NGYF=  128 NGZF=  140
   support grid    NGXF=   140 NGYF=  128 NGZF=  140
   ions per type =               4   1
   NGX,Y,Z   is equivalent  to a cutoff of  11.72, 10.78, 11.70 a.u.
   NGXF,Y,Z  is equivalent  to a cutoff of  23.45, 21.55, 23.40 a.u.

 SYSTEM =  unknown system                          
 POSCAR =   H  C                                   

 Startparameter for this run:
   NWRITE =      2    write-flag & timer
   PREC   = a         normal or accurate (medium, high low for compatibility)
   ISTART =      0    job   : 0-new  1-cont  2-samecut
   ICHARG =      2    charge: 1-file 2-atom 10-const
   ISPIN  =      1    spin polarized calculation?
   LNONCOLLINEAR =      F non collinear calculations
   LSORBIT =      F    spin-orbit coupling
   INIWAV =      1    electr: 0-lowe 1-rand  2-diag
   LASPH  =      F    aspherical Exc in radial PAW
   METAGGA=      F    non-selfconsistent MetaGGA calc.

 Electronic Relaxation 1
   ENCUT  =  400.0 eV  29.40 Ry    5.42 a.u.  16.19 16.10 16.22*2*pi/ulx,y,z
   ENINI  =  400.0     initial cutoff
   ENAUG  =  644.9 eV  augmentation charge cutoff
   NELM   =    120;   NELMIN=  4; NELMDL= -5     # of ELM steps 
   EDIFF  = 0.1E-05   stopping-criterion for ELM
   LREAL  =      F    real-space projection
   NLSPLINE    = F    spline interpolate recip. space projectors
   LCOMPAT=      F    compatible to vasp.4.4
   GGA_COMPAT  = T    GGA compatible to vasp.4.4-vasp.4.6
   LMAXPAW     = -100 max onsite density
   LMAXMIX     =    2 max onsite mixed and CHGCAR
   VOSKOWN=      0    Vosko Wilk Nusair interpolation
   ROPT   =    0.00000   0.00000
 Ionic relaxation
   EDIFFG = 0.1E-04   stopping-criterion for IOM
   NSW    =     10    number of steps for IOM
   NBLOCK =      1;   KBLOCK =     10    inner block; outer block 
   IBRION =      0    ionic relax: 0-MD 1-quasi-New 2-CG
   NFREE  =      0    steps in history (QN), initial steepest desc. (CG)
   ISIF   =      2    stress and relaxation
   IWAVPR =     12    prediction:  0-non 1-charg 2-wave 3-comb
   ISYM   =      0    0-nonsym 1-usesym 2-fastsym
   LCORR  =      T    Harris-Foulkes like correction to forces

   POTIM  = 0.5000    time-step for ionic-motion
   TEIN   =    0.0    initial temperature
   TEBEG  =    0.0;   TEEND  =   0.0 temperature during run
   SMASS  =  -3.00    Nose mass-parameter (am)
   estimated Nose-frequenzy (Omega)   =  0.10E-29 period in steps =****** mass=  -0.225E-26a.u.
   SCALEE = 1.0000    scale energy and forces
   NPACO  =    256;   APACO  = 16.0  distance and # of slots for P.C.
   PSTRESS=    0.0 pullay stress

  Mass of Ions in am
   POMASS =   1.00 12.01
  Ionic Valenz
   ZVAL   =   1.00  4.00
  Atomic Wigner-Seitz radii
   RWIGS  =  -1.00 -1.00
  virtual crystal weights 
   VCA    =   1.00  1.00
   NELECT =       8.0000    total number of electrons
   NUPDOWN=      -1.0000    fix difference up-down

 DOS related values:
   EMIN   =  10.00;   EMAX   =-10.00  energy-range for DOS
   EFERMI =   0.00
   ISMEAR =     0;   SIGMA  =   0.20  broadening in eV -4-tet -1-fermi 0-gaus

 Electronic relaxation 2 (details)
   IALGO  =     68    algorithm
   LDIAG  =      T    sub-space diagonalisation (order eigenvalues)
   LSUBROT=      F    optimize rotation matrix (better conditioning)
   TURBO    =      0    0=normal 1=particle mesh
   IRESTART =      0    0=no restart 2=restart with 2 vectors
   NREBOOT  =      0    no. of reboots
   NMIN     =      0    reboot dimension
   EREF     =   0.00    reference energy to select bands
   IMIX   =      4    mixing-type and parameters
     AMIX     =   0.40;   BMIX     =  1.00
     AMIX_MAG =   1.60;   BMIX_MAG =  1.00
     AMIN     =   0.10
     WC   =   100.;   INIMIX=   1;  MIXPRE=   1;  MAXMIX= -45

 Intra band minimization:
   WEIMIN = 0.0010     energy-eigenvalue tresh-hold
   EBREAK =  0.31E-07  absolut break condition
   DEPER  =   0.30     relativ break condition  

   TIME   =   0.40     timestep for ELM

  volume/ion in A,a.u.               =     194.89      1315.20
  Fermi-wavevector in a.u.,A,eV,Ry     =   0.330255  0.624092  1.483966  0.109068
  Thomas-Fermi vector in A             =   1.225402
 
 Write flags
   LWAVE        =      F    write WAVECAR
   LDOWNSAMPLE  =      F    k-point downsampling of WAVECAR
   LCHARG       =      F    write CHGCAR
   LVTOT        =      F    write LOCPOT, total local potential
   LVHAR        =      F    write LOCPOT, Hartree potential only
   LELF         =      F    write electronic localiz. function (ELF)
   LORBIT       =      0    0 simple, 1 ext, 2 COOP (PROOUT), +10 PAW based schemes


 Dipole corrections
   LMONO  =      F    monopole corrections only (constant potential shift)
   LDIPOL =      F    correct potential (dipole corrections)
   IDIPOL =      0    1-x, 2-y, 3-z, 4-all directions 
   EPSILON=  1.0000000 bulk dielectric constant

 Exchange correlation treatment:
   GGA     =    --    GGA type
   LEXCH   =     8    internal setting for exchange type
   VOSKOWN=      0    Vosko Wilk Nusair interpolation
   LHFCALC =     F    Hartree Fock is set to
   LHFONE  =     F    Hartree Fock one center treatment
   AEXX    =    0.0000 exact exchange contribution

 Linear response parameters
   LEPSILON=     F    determine dielectric tensor
   LRPA    =     F    only Hartree local field effects (RPA)
   LNABLA  =     F    use nabla operator in PAW spheres
   LVEL    =     F    velocity operator in full k-point grid
   LINTERFAST=   F  fast interpolation
   KINTER  =     0    interpolate to denser k-point grid
   CSHIFT  =0.1000    complex shift for real part using Kramers Kronig
   OMEGAMAX=  -1.0    maximum frequency
   DEG_THRESHOLD= 0.2000000E-02 threshold for treating states as degnerate
   RTIME   =   -0.100 relaxation time in fs
  (WPLASMAI=    0.000 imaginary part of plasma frequency in eV, 0.658/RTIME)
   DFIELD  = 0.0000000 0.0000000 0.0000000 field for delta impulse in time
 
 Orbital magnetization related:
   ORBITALMAG=     F  switch on orbital magnetization
   LCHIMAG   =     F  perturbation theory with respect to B field
   DQ        =  0.001000  dq finite difference perturbation B field
   LLRAUG    =     F  two centre corrections for induced B field



--------------------------------------------------------------------------------------------------------


 molecular dynamics for ions
   using a microcanonical ensemble
 charge density and potential will be updated during run
 non-spin polarized calculation
 RMM-DIIS sequential band-by-band and
  variant of blocked Davidson during initial phase
 perform sub-space diagonalisation
    before iterative eigenvector-optimisation
 modified Broyden-mixing scheme, WC =      100.0
 initial mixing is a Kerker type mixing with AMIX =  0.4000 and BMIX =      1.0000
 Hartree-type preconditioning will be used
 using additional bands            4
 reciprocal scheme for non local part
 use partial core corrections
 calculate Harris-corrections to forces 
   (improved forces if not selfconsistent)
 use gradient corrections 
 use of overlap-Matrix (Vanderbilt PP)
 Gauss-broadening in eV      SIGMA  =   0.20


--------------------------------------------------------------------------------------------------------


  energy-cutoff  :      400.00
  volume of cell :      974.46
      direct lattice vectors                 reciprocal lattice vectors
     9.926506510  0.000000000  0.000000000     0.100740376 -0.001143830  0.000866373
     0.112090428  9.872125623  0.000000000     0.000000000  0.101295307  0.001988732
    -0.087735173 -0.195229604  9.943947663     0.000000000  0.000000000  0.100563683

  length of vectors
     9.926506510  9.872761953  9.946250911     0.100750595  0.101314828  0.100563683


 
 k-points in units of 2pi/SCALE and weight: read from INCAR                         
   0.02518509  0.02503787  0.02585470       0.250
  -0.02518509  0.02560978  0.02542151       0.250
   0.02518509 -0.02560978  0.02486033       0.250
  -0.02518509 -0.02503787  0.02442714       0.250
 
 k-points in reciprocal lattice and weights: read from INCAR                         
   0.25000000  0.25000000  0.25000000       0.250
  -0.25000000  0.25000000  0.25000000       0.250
   0.25000000 -0.25000000  0.25000000       0.250
  -0.25000000 -0.25000000  0.25000000       0.250
 
 position of ions in fractional coordinates (direct lattice) 
   0.53820557  0.40678654  0.36060176
   0.39424043  0.48061355  0.43825774
   0.55167212  0.56514300  0.44203357
   0.52821186  0.41641817  0.53916209
   0.50370373  0.46679136  0.44537977
 
 position of ions in cartesian coordinates  (Angst):
   5.35646051  3.94544767  3.58580506
   3.92885180  4.65911641  4.35801202
   5.50074212  5.49286466  4.39555873
   5.24267150  4.00567206  5.36139958
   5.01326570  4.52127160  4.42883317
 


--------------------------------------------------------------------------------------------------------


 k-point  1 :   0.2500 0.2500 0.2500  plane waves:   17695
 k-point  2 :  -0.2500 0.2500 0.2500  plane waves:   17689
 k-point  3 :   0.2500-0.2500 0.2500  plane waves:   17687
 k-point  4 :  -0.2500-0.2500 0.2500  plane waves:   17715

 maximum and minimum number of plane-waves per node :      4442     4403

 maximum number of plane-waves:     17715
 maximum index in each direction: 
   IXMAX=   16   IYMAX=   16   IZMAX=   15
   IXMIN=  -16   IYMIN=  -16   IZMIN=  -16


 parallel 3D FFT for wavefunctions:
    minimum data exchange during FFTs selected (reduces bandwidth)
 parallel 3D FFT for charge:
    minimum data exchange during FFTs selected (reduces bandwidth)


 total amount of memory used by VASP MPI-rank0    53407. kBytes
=======================================================================

   base      :      30000. kBytes
   nonl-proj :       2621. kBytes
   fftplans  :       7845. kBytes
   grid      :      12367. kBytes
   one-center:          6. kBytes
   wavefun   :        568. kBytes
 
     INWAV:  cpu time    0.0000: real time    0.0002
 Broyden mixing: mesh for mixing (old mesh)
   NGX = 33   NGY = 33   NGZ = 33
  (NGX  =140   NGY  =128   NGZ  =140)
  gives a total of  35937 points

 initial charge density was supplied:
 charge density of overlapping atoms calculated
 number of electron       8.0000000 magnetization 
 keeping initial charge density in first step


--------------------------------------------------------------------------------------------------------


 Maximum index for augmentation-charges          179 (set IRDMAX)


--------------------------------------------------------------------------------------------------------


 First call to EWALD:  gamma=   0.179
 Maximum number of real-space cells 3x 3x 3
 Maximum number of reciprocal cells 3x 3x 3

    FEWALD:  cpu time    0.0023: real time    0.0023


--------------------------------------- Iteration      1(   1)  ---------------------------------------


    POTLOK:  cpu time    0.1477: real time    0.1497
    SETDIJ:  cpu time    0.0030: real time    0.0030
     EDDAV:  cpu time    0.1978: real time    0.1998
       DOS:  cpu time    0.0004: real time    0.0004
    --------------------------------------------
      LOOP:  cpu time    0.3489: real time    0.3529

 eigenvalue-minimisations  :    96
 total energy-change (2. order) : 0.1198106E+02  (-0.2006247E+03)
 number of electron       8.0000000 magnetization 
 augmentation part        8.0000000 magnetization 

 Free energy of the ion-electron system (eV)
  ---------------------------------------------------
  alpha Z        PSCENC =         0.24859894
  Ewald energy   TEWEN  =       129.81913143
  -Hartree energ DENC   =      -244.04975464
  -exchange      EXHF   =         0.00000000
  -V(xc)+E(xc)   XCENC  =        22.06236480
  PAW double counting   =       117.05815612     -117.66307307
  entropy T*S    EENTRO =        -0.00000000
  eigenvalues    EBANDS =       -92.53612306
  atomic energy  EATOM  =       197.04175453
  Solvation  Ediel_sol  =         0.00000000
  ---------------------------------------------------
  free energy    TOTEN  =        11.98105506 eV

  energy without entropy =       11.98105506  energy(sigma->0) =       11.98105506


--------------------------------------------------------------------------------------------------------




--------------------------------------- Iteration      1(   2)  ---------------------------------------


     EDDAV:  cpu time    0.1642: real time    0.1648
       DOS:  cpu time    0.0002: real time    0.0002
    --------------------------------------------
      LOOP:  cpu time    0.1644: real time    0.1650

 eigenvalue-minimisations  :    72
 total energy-change (2. order) :-0.3629463E+02  (-0.3629463E+02)
 number of electron       8.0000000 magnetization 
 augmentation part        8.0000000 magnetization 

 Free energy of the ion-electron system (eV)
  ---------------------------------------------------
  alpha Z        PSCENC =         0.24859894
  Ewald energy   TEWEN  =       129.81913143
  -Hartree energ DENC   =      -244.04975464
  -exchange      EXHF   =         0.00000000
  -V(xc)+E(xc)   XCENC  =        22.06236480
  PAW double counting   =       117.05815612     -117.66307307
  entropy T*S    EENTRO =        -0.00000000
  eigenvalues    EBANDS =      -128.83075194
  atomic energy  EATOM  =       197.04175453
  Solvation  Ediel_sol  =         0.00000000
  ---------------------------------------------------
  free energy    TOTEN  =       -24.31357383 eV

  energy without entropy =      -24.31357383  energy(sigma->0) =      -24.31357383


--------------------------------------------------------------------------------------------------------




--------------------------------------- Iteration      1(   3)  ---------------------------------------


     EDDAV:  cpu time    0.1471: real time    0.1477
       DOS:  cpu time    0.0004: real time    0.0004
    --------------------------------------------
      LOOP:  cpu time    0.1475: real time    0.1481

 eigenvalue-minimisations  :    64
 total energy-change (2. order) :-0.3253732E+01  (-0.3253732E+01)
 number of electron       8.0000000 magnetization 
 augmentation part        8.0000000 magnetization 

 Free energy of the ion-electron system (eV)
  ---------------------------------------------------
  alpha Z        PSCENC =         0.24859894
  Ewald energy   TEWEN  =       129.81913143
  -Hartree energ DENC   =      -244.04975464
  -exchange      EXHF   =         0.00000000
  -V(xc)+E(xc)   XCENC  =        22.06236480
  PAW double counting   =       117.05815612     -117.66307307
  entropy T*S    EENTRO =        -0.00000000
  eigenvalues    EBANDS =      -132.08448387
  atomic energy  EATOM  =       197.04175453
  Solvation  Ediel_sol  =         0.00000000
  ---------------------------------------------------
  free energy    TOTEN  =       -27.56730576 eV

  energy without entropy =      -27.56730576  energy(sigma->0) =      -27.56730576


--------------------------------------------------------------------------------------------------------




--------------------------------------- Iteration      1(   4)  ---------------------------------------


     EDDAV:  cpu time    0.2434: real time    0.2442
       DOS:  cpu time    0.0002: real time    0.0002
    --------------------------------------------
      LOOP:  cpu time    0.2436: real time    0.2444

 eigenvalue-minimisations  :   128
 total energy-change (2. order) :-0.1149862E+00  (-0.1149862E+00)
 number of electron       8.0000000 magnetization 
 augmentation part        8.0000000 magnetization 

 Free energy of the ion-electron system (eV)
  ---------------------------------------------------
  alpha Z        PSCENC =         0.24859894
  Ewald energy   TEWEN  =       129.81913143
  -Hartree energ DENC   =      -244.04975464
  -exchange      EXHF   =         0.00000000
  -V(xc)+E(xc)   XCENC  =        22.06236480
  PAW double counting   =       117.05815612     -117.66307307
  entropy T*S    EENTRO =        -0.00000000
  eigenvalues    EBANDS =      -132.19947012
  atomic energy  EATOM  =       197.04175453
  Solvation  Ediel_sol  =         0.00000000
  ---------------------------------------------------
  free energy    TOTEN  =       -27.68229200 eV

  energy without entropy =      -27.68229200  energy(sigma->0) =      -27.68229200


--------------------------------------------------------------------------------------------------------




--------------------------------------- Iteration      1(   5)  ---------------------------------------


     EDDAV:  cpu time    0.1843: real time    0.1857
       DOS:  cpu time    0.0005: real time    0.0005
    CHARGE:  cpu time    0.0390: real time    0.0434
    MIXING:  cpu time    0.0568: real time    0.0570
    --------------------------------------------
      LOOP:  cpu time    0.2807: real time    0.2867

 eigenvalue-minimisations  :    88
 total energy-change (2. order) :-0.3193356E-04  (-0.3193369E-04)
 number of electron       8.0000002 magnetization 
 augmentation part        0.2287829 magnetization 

 Broyden mixing:
  rms(total) = 0.88918E+00    rms(broyden)= 0.88899E+00
  rms(prec ) = 0.12692E+01
  weight for this iteration     100.00

 Free energy of the ion-electron system (eV)
  ---------------------------------------------------
  alpha Z        PSCENC =         0.24859894
  Ewald energy   TEWEN  =       129.81913143
  -Hartree energ DENC   =      -244.04975464
  -exchange      EXHF   =         0.00000000
  -V(xc)+E(xc)   XCENC  =        22.06236480
  PAW double counting   =       117.05815612     -117.66307307
  entropy T*S    EENTRO =        -0.00000000
  eigenvalues    EBANDS =      -132.19950205
  atomic energy  EATOM  =       197.04175453
  Solvation  Ediel_sol  =         0.00000000
  ---------------------------------------------------
  free energy    TOTEN  =       -27.68232394 eV

  energy without entropy =      -27.68232394  energy(sigma->0) =      -27.68232394


--------------------------------------------------------------------------------------------------------




--------------------------------------- Iteration      1(   6)  ---------------------------------------


    POTLOK:  cpu time    0.1427: real time    0.1436
    SETDIJ:  cpu time    0.0027: real time    0.0027
    EDDIAG:  cpu time    0.0407: real time    0.0410
  RMM-DIIS:  cpu time    0.1535: real time    0.1540
    ORTHCH:  cpu time    0.0026: real time    0.0026
       DOS:  cpu time    0.0002: real time    0.0002
    CHARGE:  cpu time    0.0188: real time    0.0189
    MIXING:  cpu time    0.0053: real time    0.0053
    --------------------------------------------
      LOOP:  cpu time    0.3665: real time    0.3682

 eigenvalue-minimisations  :    64
 total energy-change (2. order) : 0.3004692E+01  (-0.5624142E+00)
 number of electron       8.0000002 magnetization 
 augmentation part        0.2016430 magnetization 

 Broyden mixing:
  rms(total) = 0.43689E+00    rms(broyden)= 0.43682E+00
  rms(prec ) = 0.57148E+00
  weight for this iteration     100.00

 eigenvalues of (default mixing * dielectric matrix)
  average eigenvalue GAMMA=   1.3128
  1.3128

 Free energy of the ion-electron system (eV)
  ---------------------------------------------------
  alpha Z        PSCENC =         0.24859894
  Ewald energy   TEWEN  =       129.81913143
  -Hartree energ DENC   =      -264.15687903
  -exchange      EXHF   =         0.00000000
  -V(xc)+E(xc)   XCENC  =        23.28227302
  PAW double counting   =       241.61007259     -242.39510688
  entropy T*S    EENTRO =        -0.00000000
  eigenvalues    EBANDS =      -110.12747642
  atomic energy  EATOM  =       197.04175453
  Solvation  Ediel_sol  =         0.00000000
  ---------------------------------------------------
  free energy    TOTEN  =       -24.67763182 eV

  energy without entropy =      -24.67763182  energy(sigma->0) =      -24.67763182


--------------------------------------------------------------------------------------------------------




--------------------------------------- Iteration      1(   7)  ---------------------------------------


    POTLOK:  cpu time    0.1434: real time    0.1437
    SETDIJ:  cpu time    0.0026: real time    0.0025
    EDDIAG:  cpu time    0.0367: real time    0.0367
  RMM-DIIS:  cpu time    0.1526: real time    0.1529
    ORTHCH:  cpu time    0.0025: real time    0.0026
       DOS:  cpu time    0.0002: real time    0.0002
    CHARGE:  cpu time    0.0176: real time    0.0176
    MIXING:  cpu time    0.0055: real time    0.0056
    --------------------------------------------
      LOOP:  cpu time    0.3611: real time    0.3618

 eigenvalue-minimisations  :    64
 total energy-change (2. order) : 0.5140345E+00  (-0.1319980E+00)
 number of electron       8.0000002 magnetization 
 augmentation part        0.1907206 magnetization 

 Broyden mixing:
  rms(total) = 0.23110E+00    rms(broyden)= 0.23105E+00
  rms(prec ) = 0.28023E+00
  weight for this iteration     100.00

 eigenvalues of (default mixing * dielectric matrix)
  average eigenvalue GAMMA=   1.8457
  1.4699  2.2215

 Free energy of the ion-electron system (eV)
  ---------------------------------------------------
  alpha Z        PSCENC =         0.24859894
  Ewald energy   TEWEN  =       129.81913143
  -Hartree energ DENC   =      -276.22278683
  -exchange      EXHF   =         0.00000000
  -V(xc)+E(xc)   XCENC  =        24.16546636
  PAW double counting   =       374.19340494     -375.02088040
  entropy T*S    EENTRO =        -0.00000000
  eigenvalues    EBANDS =       -98.38828627
  atomic energy  EATOM  =       197.04175453
  Solvation  Ediel_sol  =         0.00000000
  ---------------------------------------------------
  free energy    TOTEN  =       -24.16359731 eV

  energy without entropy =      -24.16359731  energy(sigma->0) =      -24.16359731


--------------------------------------------------------------------------------------------------------




--------------------------------------- Iteration      1(   8)  ---------------------------------------


    POTLOK:  cpu time    0.1411: real time    0.1413
    SETDIJ:  cpu time    0.0027: real time    0.0027
    EDDIAG:  cpu time    0.0374: real time    0.0375
  RMM-DIIS:  cpu time    0.1541: real time    0.1544
    ORTHCH:  cpu time    0.0026: real time    0.0026
       DOS:  cpu time    0.0003: real time    0.0003
    CHARGE:  cpu time    0.0168: real time    0.0169
    MIXING:  cpu time    0.0055: real time    0.0055
    --------------------------------------------
      LOOP:  cpu time    0.3604: real time    0.3612

 eigenvalue-minimisations  :    64
 total energy-change (2. order) : 0.1479646E+00  (-0.1619190E-01)
 number of electron       8.0000002 magnetization 
 augmentation part        0.1893219 magnetization 

 Broyden mixing:
  rms(total) = 0.22421E-01    rms(broyden)= 0.22401E-01
  rms(prec ) = 0.53587E-01
  weight for this iteration     100.00

 eigenvalues of (default mixing * dielectric matrix)
  average eigenvalue GAMMA=   1.5548
  2.2485  0.9956  1.4203

 Free energy of the ion-electron system (eV)
  ---------------------------------------------------
  alpha Z        PSCENC =         0.24859894
  Ewald energy   TEWEN  =       129.81913143
  -Hartree energ DENC   =      -281.62383787
  -exchange      EXHF   =         0.00000000
  -V(xc)+E(xc)   XCENC  =        24.70173773
  PAW double counting   =       487.35201650     -488.14690045
  entropy T*S    EENTRO =        -0.00000000
  eigenvalues    EBANDS =       -93.40813354
  atomic energy  EATOM  =       197.04175453
  Solvation  Ediel_sol  =         0.00000000
  ---------------------------------------------------
  free energy    TOTEN  =       -24.01563274 eV

  energy without entropy =      -24.01563274  energy(sigma->0) =      -24.01563274


--------------------------------------------------------------------------------------------------------




--------------------------------------- Iteration      1(   9)  ---------------------------------------


    POTLOK:  cpu time    0.1415: real time    0.1422
    SETDIJ:  cpu time    0.0025: real time    0.0025
    EDDIAG:  cpu time    0.0377: real time    0.0377
  RMM-DIIS:  cpu time    0.1541: real time    0.1544
    ORTHCH:  cpu time    0.0026: real time    0.0026
       DOS:  cpu time    0.0002: real time    0.0002
    CHARGE:  cpu time    0.0173: real time    0.0174
    MIXING:  cpu time    0.0057: real time    0.0057
    --------------------------------------------
      LOOP:  cpu time    0.3617: real time    0.3627

 eigenvalue-minimisations  :    64
 total energy-change (2. order) : 0.5737999E-02  (-0.1130380E-02)
 number of electron       8.0000002 magnetization 
 augmentation part        0.1887385 magnetization 

 Broyden mixing:
  rms(total) = 0.19842E-01    rms(broyden)= 0.19839E-01
  rms(prec ) = 0.41217E-01
  weight for this iteration     100.00

 eigenvalues of (default mixing * dielectric matrix)
  average eigenvalue GAMMA=   2.1105
  3.1751  2.8779  1.0012  1.3878

 Free energy of the ion-electron system (eV)
  ---------------------------------------------------
  alpha Z        PSCENC =         0.24859894
  Ewald energy   TEWEN  =       129.81913143
  -Hartree energ DENC   =      -282.90596858
  -exchange      EXHF   =         0.00000000
  -V(xc)+E(xc)   XCENC  =        24.77340559
  PAW double counting   =       491.32969283     -492.12718036
  entropy T*S    EENTRO =        -0.00000000
  eigenvalues    EBANDS =       -92.18932912
  atomic energy  EATOM  =       197.04175453
  Solvation  Ediel_sol  =         0.00000000
  ---------------------------------------------------
  free energy    TOTEN  =       -24.00989474 eV

  energy without entropy =      -24.00989474  energy(sigma->0) =      -24.00989474


--------------------------------------------------------------------------------------------------------




--------------------------------------- Iteration      1(  10)  ---------------------------------------


    POTLOK:  cpu time    0.1342: real time    0.1344
    SETDIJ:  cpu time    0.0028: real time    0.0028
    EDDIAG:  cpu time    0.0372: real time    0.0373
  RMM-DIIS:  cpu time    0.1546: real time    0.1548
    ORTHCH:  cpu time    0.0019: real time    0.0019
       DOS:  cpu time    0.0002: real time    0.0002
    CHARGE:  cpu time    0.0171: real time    0.0172
    MIXING:  cpu time    0.0061: real time    0.0061
    --------------------------------------------
      LOOP:  cpu time    0.3541: real time    0.3547

 eigenvalue-minimisations  :    64
 total energy-change (2. order) : 0.5933099E-02  (-0.2430160E-02)
 number of electron       8.0000002 magnetization 
 augmentation part        0.1876863 magnetization 

 Broyden mixing:
  rms(total) = 0.28405E-01    rms(broyden)= 0.28404E-01
  rms(prec ) = 0.36127E-01
  weight for this iteration     100.00

 eigenvalues of (default mixing * dielectric matrix)
  average eigenvalue GAMMA=   1.7796
  3.0778  2.4580  1.1958  1.1958  0.9705

 Free energy of the ion-electron system (eV)
  ---------------------------------------------------
  alpha Z        PSCENC =         0.24859894
  Ewald energy   TEWEN  =       129.81913143
  -Hartree energ DENC   =      -285.11697106
  -exchange      EXHF   =         0.00000000
  -V(xc)+E(xc)   XCENC  =        24.84281758
  PAW double counting   =       474.57517566     -475.37633848
  entropy T*S    EENTRO =        -0.00000000
  eigenvalues    EBANDS =       -90.03813025
  atomic energy  EATOM  =       197.04175453
  Solvation  Ediel_sol  =         0.00000000
  ---------------------------------------------------
  free energy    TOTEN  =       -24.00396164 eV

  energy without entropy =      -24.00396164  energy(sigma->0) =      -24.00396164


--------------------------------------------------------------------------------------------------------




--------------------------------------- Iteration      1(  11)  ---------------------------------------


    POTLOK:  cpu time    0.1348: real time    0.1360
    SETDIJ:  cpu time    0.0033: real time    0.0033
    EDDIAG:  cpu time    0.0369: real time    0.0369
  RMM-DIIS:  cpu time    0.1485: real time    0.1489
    ORTHCH:  cpu time    0.0026: real time    0.0026
       DOS:  cpu time    0.0002: real time    0.0002
    CHARGE:  cpu time    0.0180: real time    0.0180
    MIXING:  cpu time    0.0061: real time    0.0061
    --------------------------------------------
      LOOP:  cpu time    0.3503: real time    0.3520

 eigenvalue-minimisations  :    64
 total energy-change (2. order) :-0.4718977E-03  (-0.6783673E-03)
 number of electron       8.0000002 magnetization 
 augmentation part        0.1880109 magnetization 

 Broyden mixing:
  rms(total) = 0.65244E-02    rms(broyden)= 0.65216E-02
  rms(prec ) = 0.12982E-01
  weight for this iteration     100.00

 eigenvalues of (default mixing * dielectric matrix)
  average eigenvalue GAMMA=   2.2891
  4.8612  3.1255  2.4342  1.3090  1.0024  1.0024

 Free energy of the ion-electron system (eV)
  ---------------------------------------------------
  alpha Z        PSCENC =         0.24859894
  Ewald energy   TEWEN  =       129.81913143
  -Hartree energ DENC   =      -285.01450653
  -exchange      EXHF   =         0.00000000
  -V(xc)+E(xc)   XCENC  =        24.85655100
  PAW double counting   =       483.83440063     -484.62843212
  entropy T*S    EENTRO =        -0.00000000
  eigenvalues    EBANDS =       -90.16193142
  atomic energy  EATOM  =       197.04175453
  Solvation  Ediel_sol  =         0.00000000
  ---------------------------------------------------
  free energy    TOTEN  =       -24.00443354 eV

  energy without entropy =      -24.00443354  energy(sigma->0) =      -24.00443354


--------------------------------------------------------------------------------------------------------




--------------------------------------- Iteration      1(  12)  ---------------------------------------


    POTLOK:  cpu time    0.1257: real time    0.1261
    SETDIJ:  cpu time    0.0028: real time    0.0028
    EDDIAG:  cpu time    0.0367: real time    0.0368
  RMM-DIIS:  cpu time    0.1547: real time    0.1550
    ORTHCH:  cpu time    0.0018: real time    0.0018
       DOS:  cpu time    0.0002: real time    0.0002
    CHARGE:  cpu time    0.0167: real time    0.0167
    MIXING:  cpu time    0.0061: real time    0.0061
    --------------------------------------------
      LOOP:  cpu time    0.3447: real time    0.3454

 eigenvalue-minimisations  :    64
 total energy-change (2. order) :-0.1009789E-01  (-0.4603452E-03)
 number of electron       8.0000002 magnetization 
 augmentation part        0.1882910 magnetization 

 Broyden mixing:
  rms(total) = 0.13379E-01    rms(broyden)= 0.13378E-01
  rms(prec ) = 0.17463E-01
  weight for this iteration     100.00

 eigenvalues of (default mixing * dielectric matrix)
  average eigenvalue GAMMA=   2.0231
  4.8418  2.9490  2.4416  1.2668  0.9917  0.9917  0.6793

 Free energy of the ion-electron system (eV)
  ---------------------------------------------------
  alpha Z        PSCENC =         0.24859894
  Ewald energy   TEWEN  =       129.81913143
  -Hartree energ DENC   =      -285.18626190
  -exchange      EXHF   =         0.00000000
  -V(xc)+E(xc)   XCENC  =        24.84850376
  PAW double counting   =       481.46522431     -482.25729460
  entropy T*S    EENTRO =        -0.00000000
  eigenvalues    EBANDS =       -89.99418790
  atomic energy  EATOM  =       197.04175453
  Solvation  Ediel_sol  =         0.00000000
  ---------------------------------------------------
  free energy    TOTEN  =       -24.01453143 eV

  energy without entropy =      -24.01453143  energy(sigma->0) =      -24.01453143


--------------------------------------------------------------------------------------------------------




--------------------------------------- Iteration      1(  13)  ---------------------------------------


    POTLOK:  cpu time    0.1253: real time    0.1256
    SETDIJ:  cpu time    0.0025: real time    0.0025
    EDDIAG:  cpu time    0.0387: real time    0.0387
  RMM-DIIS:  cpu time    0.1497: real time    0.1500
    ORTHCH:  cpu time    0.0018: real time    0.0018
       DOS:  cpu time    0.0002: real time    0.0002
    CHARGE:  cpu time    0.0175: real time    0.0175
    MIXING:  cpu time    0.0068: real time    0.0068
    --------------------------------------------
      LOOP:  cpu time    0.3425: real time    0.3430

 eigenvalue-minimisations  :    64
 total energy-change (2. order) :-0.3219145E-03  (-0.7891260E-04)
 number of electron       8.0000002 magnetization 
 augmentation part        0.1880796 magnetization 

 Broyden mixing:
  rms(total) = 0.65275E-02    rms(broyden)= 0.65274E-02
  rms(prec ) = 0.85481E-02
  weight for this iteration     100.00

 eigenvalues of (default mixing * dielectric matrix)
  average eigenvalue GAMMA=   2.4240
  6.1338  4.0469  2.5625  2.3449  1.2180  1.2180  1.0011  0.8672

 Free energy of the ion-electron system (eV)
  ---------------------------------------------------
  alpha Z        PSCENC =         0.24859894
  Ewald energy   TEWEN  =       129.81913143
  -Hartree energ DENC   =      -285.37077658
  -exchange      EXHF   =         0.00000000
  -V(xc)+E(xc)   XCENC  =        24.85420272
  PAW double counting   =       481.31519454     -482.10959415
  entropy T*S    EENTRO =        -0.00000000
  eigenvalues    EBANDS =       -89.81336477
  atomic energy  EATOM  =       197.04175453
  Solvation  Ediel_sol  =         0.00000000
  ---------------------------------------------------
  free energy    TOTEN  =       -24.01485335 eV

  energy without entropy =      -24.01485335  energy(sigma->0) =      -24.01485335


--------------------------------------------------------------------------------------------------------




--------------------------------------- Iteration      1(  14)  ---------------------------------------


    POTLOK:  cpu time    0.1244: real time    0.1247
    SETDIJ:  cpu time    0.0027: real time    0.0027
    EDDIAG:  cpu time    0.0356: real time    0.0357
  RMM-DIIS:  cpu time    0.1481: real time    0.1497
    ORTHCH:  cpu time    0.0024: real time    0.0024
       DOS:  cpu time    0.0002: real time    0.0002
    CHARGE:  cpu time    0.0174: real time    0.0174
    MIXING:  cpu time    0.0068: real time    0.0069
    --------------------------------------------
      LOOP:  cpu time    0.3376: real time    0.3397

 eigenvalue-minimisations  :    64
 total energy-change (2. order) :-0.2820349E-02  (-0.2304836E-03)
 number of electron       8.0000002 magnetization 
 augmentation part        0.1878407 magnetization 

 Broyden mixing:
  rms(total) = 0.49790E-02    rms(broyden)= 0.49771E-02
  rms(prec ) = 0.64969E-02
  weight for this iteration     100.00

 eigenvalues of (default mixing * dielectric matrix)
  average eigenvalue GAMMA=   2.3186
  6.4834  4.1800  2.4572  2.4572  1.1816  1.1816  1.0202  0.9529  0.9529

 Free energy of the ion-electron system (eV)
  ---------------------------------------------------
  alpha Z        PSCENC =         0.24859894
  Ewald energy   TEWEN  =       129.81913143
  -Hartree energ DENC   =      -285.44206516
  -exchange      EXHF   =         0.00000000
  -V(xc)+E(xc)   XCENC  =        24.84675838
  PAW double counting   =       480.21760849     -481.01444317
  entropy T*S    EENTRO =        -0.00000000
  eigenvalues    EBANDS =       -89.73501714
  atomic energy  EATOM  =       197.04175453
  Solvation  Ediel_sol  =         0.00000000
  ---------------------------------------------------
  free energy    TOTEN  =       -24.01767370 eV

  energy without entropy =      -24.01767370  energy(sigma->0) =      -24.01767370


--------------------------------------------------------------------------------------------------------




--------------------------------------- Iteration      1(  15)  ---------------------------------------


    POTLOK:  cpu time    0.1219: real time    0.1223
    SETDIJ:  cpu time    0.0027: real time    0.0027
    EDDIAG:  cpu time    0.0362: real time    0.0363
  RMM-DIIS:  cpu time    0.1503: real time    0.1505
    ORTHCH:  cpu time    0.0026: real time    0.0026
       DOS:  cpu time    0.0002: real time    0.0003
    CHARGE:  cpu time    0.0165: real time    0.0165
    MIXING:  cpu time    0.0068: real time    0.0068
    --------------------------------------------
      LOOP:  cpu time    0.3371: real time    0.3378

 eigenvalue-minimisations  :    64
 total energy-change (2. order) :-0.1697304E-03  (-0.1793151E-04)
 number of electron       8.0000002 magnetization 
 augmentation part        0.1878627 magnetization 

 Broyden mixing:
  rms(total) = 0.16408E-02    rms(broyden)= 0.16407E-02
  rms(prec ) = 0.21091E-02
  weight for this iteration     100.00

 eigenvalues of (default mixing * dielectric matrix)
  average eigenvalue GAMMA=   2.5479
  7.4682  4.9161  3.0472  2.5267  2.0283  1.3030  1.3030  0.9992  0.9992  0.8880

 Free energy of the ion-electron system (eV)
  ---------------------------------------------------
  alpha Z        PSCENC =         0.24859894
  Ewald energy   TEWEN  =       129.81913143
  -Hartree energ DENC   =      -285.34792754
  -exchange      EXHF   =         0.00000000
  -V(xc)+E(xc)   XCENC  =        24.84280637
  PAW double counting   =       480.36373730     -481.15923944
  entropy T*S    EENTRO =        -0.00000000
  eigenvalues    EBANDS =       -89.82670501
  atomic energy  EATOM  =       197.04175453
  Solvation  Ediel_sol  =         0.00000000
  ---------------------------------------------------
  free energy    TOTEN  =       -24.01784343 eV

  energy without entropy =      -24.01784343  energy(sigma->0) =      -24.01784343


--------------------------------------------------------------------------------------------------------




--------------------------------------- Iteration      1(  16)  ---------------------------------------


    POTLOK:  cpu time    0.1253: real time    0.1256
    SETDIJ:  cpu time    0.0028: real time    0.0028
    EDDIAG:  cpu time    0.0374: real time    0.0375
  RMM-DIIS:  cpu time    0.1498: real time    0.1501
    ORTHCH:  cpu time    0.0021: real time    0.0021
       DOS:  cpu time    0.0002: real time    0.0002
    CHARGE:  cpu time    0.0178: real time    0.0178
    MIXING:  cpu time    0.0074: real time    0.0074
    --------------------------------------------
      LOOP:  cpu time    0.3428: real time    0.3434

 eigenvalue-minimisations  :    64
 total energy-change (2. order) :-0.2118424E-03  (-0.1936647E-04)
 number of electron       8.0000002 magnetization 
 augmentation part        0.1879537 magnetization 

 Broyden mixing:
  rms(total) = 0.15970E-02    rms(broyden)= 0.15964E-02
  rms(prec ) = 0.21429E-02
  weight for this iteration     100.00

 eigenvalues of (default mixing * dielectric matrix)
  average eigenvalue GAMMA=   2.4943
  7.6913  4.6967  3.6790  2.3830  2.3830  1.2155  1.2155  0.8962  0.9811  1.1479
  1.1479

 Free energy of the ion-electron system (eV)
  ---------------------------------------------------
  alpha Z        PSCENC =         0.24859894
  Ewald energy   TEWEN  =       129.81913143
  -Hartree energ DENC   =      -285.32271153
  -exchange      EXHF   =         0.00000000
  -V(xc)+E(xc)   XCENC  =        24.84277488
  PAW double counting   =       480.51444139     -481.30921754
  entropy T*S    EENTRO =        -0.00000000
  eigenvalues    EBANDS =       -89.85282737
  atomic energy  EATOM  =       197.04175453
  Solvation  Ediel_sol  =         0.00000000
  ---------------------------------------------------
  free energy    TOTEN  =       -24.01805527 eV

  energy without entropy =      -24.01805527  energy(sigma->0) =      -24.01805527


--------------------------------------------------------------------------------------------------------




--------------------------------------- Iteration      1(  17)  ---------------------------------------


    POTLOK:  cpu time    0.1274: real time    0.1286
    SETDIJ:  cpu time    0.0026: real time    0.0026
    EDDIAG:  cpu time    0.0357: real time    0.0359
  RMM-DIIS:  cpu time    0.1491: real time    0.1516
    ORTHCH:  cpu time    0.0019: real time    0.0019
       DOS:  cpu time    0.0002: real time    0.0002
    CHARGE:  cpu time    0.0166: real time    0.0166
    MIXING:  cpu time    0.0071: real time    0.0071
    --------------------------------------------
      LOOP:  cpu time    0.3405: real time    0.3445

 eigenvalue-minimisations  :    64
 total energy-change (2. order) :-0.1166117E-04  (-0.3354341E-05)
 number of electron       8.0000002 magnetization 
 augmentation part        0.1879151 magnetization 

 Broyden mixing:
  rms(total) = 0.37757E-03    rms(broyden)= 0.37755E-03
  rms(prec ) = 0.46234E-03
  weight for this iteration     100.00

 eigenvalues of (default mixing * dielectric matrix)
  average eigenvalue GAMMA=   2.5599
  8.2873  5.1032  3.9621  2.6054  2.4669  1.8010  1.3373  1.3373  1.0049  0.9729
  0.9729  0.8671

 Free energy of the ion-electron system (eV)
  ---------------------------------------------------
  alpha Z        PSCENC =         0.24859894
  Ewald energy   TEWEN  =       129.81913143
  -Hartree energ DENC   =      -285.37080108
  -exchange      EXHF   =         0.00000000
  -V(xc)+E(xc)   XCENC  =        24.84508182
  PAW double counting   =       480.53358383     -481.32881024
  entropy T*S    EENTRO =        -0.00000000
  eigenvalues    EBANDS =       -89.80660616
  atomic energy  EATOM  =       197.04175453
  Solvation  Ediel_sol  =         0.00000000
  ---------------------------------------------------
  free energy    TOTEN  =       -24.01806693 eV

  energy without entropy =      -24.01806693  energy(sigma->0) =      -24.01806693


--------------------------------------------------------------------------------------------------------




--------------------------------------- Iteration      1(  18)  ---------------------------------------


    POTLOK:  cpu time    0.1307: real time    0.1311
    SETDIJ:  cpu time    0.0029: real time    0.0029
    EDDIAG:  cpu time    0.0375: real time    0.0376
  RMM-DIIS:  cpu time    0.1504: real time    0.1505
    ORTHCH:  cpu time    0.0017: real time    0.0018
       DOS:  cpu time    0.0002: real time    0.0002
    CHARGE:  cpu time    0.0169: real time    0.0169
    MIXING:  cpu time    0.0076: real time    0.0076
    --------------------------------------------
      LOOP:  cpu time    0.3479: real time    0.3485

 eigenvalue-minimisations  :    60
 total energy-change (2. order) :-0.1845698E-04  (-0.6190949E-06)
 number of electron       8.0000002 magnetization 
 augmentation part        0.1878968 magnetization 

 Broyden mixing:
  rms(total) = 0.13219E-03    rms(broyden)= 0.13191E-03
  rms(prec ) = 0.19183E-03
  weight for this iteration     100.00

 eigenvalues of (default mixing * dielectric matrix)
  average eigenvalue GAMMA=   2.4865
  8.3111  5.2461  3.8581  2.5653  2.5653  1.9270  1.3130  1.3130  0.8887  0.9879
  0.9879  1.1807  1.1807

 Free energy of the ion-electron system (eV)
  ---------------------------------------------------
  alpha Z        PSCENC =         0.24859894
  Ewald energy   TEWEN  =       129.81913143
  -Hartree energ DENC   =      -285.37175950
  -exchange      EXHF   =         0.00000000
  -V(xc)+E(xc)   XCENC  =        24.84484463
  PAW double counting   =       480.40609721     -481.20141972
  entropy T*S    EENTRO =        -0.00000000
  eigenvalues    EBANDS =       -89.80533291
  atomic energy  EATOM  =       197.04175453
  Solvation  Ediel_sol  =         0.00000000
  ---------------------------------------------------
  free energy    TOTEN  =       -24.01808539 eV

  energy without entropy =      -24.01808539  energy(sigma->0) =      -24.01808539


--------------------------------------------------------------------------------------------------------




--------------------------------------- Iteration      1(  19)  ---------------------------------------


    POTLOK:  cpu time    0.1313: real time    0.1315
    SETDIJ:  cpu time    0.0026: real time    0.0026
    EDDIAG:  cpu time    0.0361: real time    0.0361
  RMM-DIIS:  cpu time    0.1214: real time    0.1216
    ORTHCH:  cpu time    0.0018: real time    0.0018
       DOS:  cpu time    0.0002: real time    0.0002
    CHARGE:  cpu time    0.0170: real time    0.0170
    MIXING:  cpu time    0.0079: real time    0.0079
    --------------------------------------------
      LOOP:  cpu time    0.3183: real time    0.3187

 eigenvalue-minimisations  :    48
 total energy-change (2. order) :-0.1874938E-05  (-0.2758220E-07)
 number of electron       8.0000002 magnetization 
 augmentation part        0.1878970 magnetization 

 Broyden mixing:
  rms(total) = 0.99504E-04    rms(broyden)= 0.99478E-04
  rms(prec ) = 0.14035E-03
  weight for this iteration     100.00

 eigenvalues of (default mixing * dielectric matrix)
  average eigenvalue GAMMA=   2.5470
  8.3786  5.5097  3.8037  3.8037  2.4308  2.4308  1.7706  1.3453  1.3453  1.0119
  1.0119  1.0141  0.9011  0.9011

 Free energy of the ion-electron system (eV)
  ---------------------------------------------------
  alpha Z        PSCENC =         0.24859894
  Ewald energy   TEWEN  =       129.81913143
  -Hartree energ DENC   =      -285.36853168
  -exchange      EXHF   =         0.00000000
  -V(xc)+E(xc)   XCENC  =        24.84465577
  PAW double counting   =       480.40121883     -481.19651285
  entropy T*S    EENTRO =        -0.00000000
  eigenvalues    EBANDS =       -89.80840224
  atomic energy  EATOM  =       197.04175453
  Solvation  Ediel_sol  =         0.00000000
  ---------------------------------------------------
  free energy    TOTEN  =       -24.01808726 eV

  energy without entropy =      -24.01808726  energy(sigma->0) =      -24.01808726


--------------------------------------------------------------------------------------------------------




--------------------------------------- Iteration      1(  20)  ---------------------------------------


    POTLOK:  cpu time    0.1365: real time    0.1368
    SETDIJ:  cpu time    0.0026: real time    0.0026
    EDDIAG:  cpu time    0.0381: real time    0.0381
  RMM-DIIS:  cpu time    0.1242: real time    0.1247
    ORTHCH:  cpu time    0.0017: real time    0.0017
       DOS:  cpu time    0.0002: real time    0.0002
    CHARGE:  cpu time    0.0165: real time    0.0165
    MIXING:  cpu time    0.0080: real time    0.0080
    --------------------------------------------
      LOOP:  cpu time    0.3279: real time    0.3288

 eigenvalue-minimisations  :    48
 total energy-change (2. order) :-0.2164608E-05  (-0.2338498E-07)
 number of electron       8.0000002 magnetization 
 augmentation part        0.1879001 magnetization 

 Broyden mixing:
  rms(total) = 0.37727E-04    rms(broyden)= 0.37722E-04
  rms(prec ) = 0.43657E-04
  weight for this iteration     100.00

 eigenvalues of (default mixing * dielectric matrix)
  average eigenvalue GAMMA=   2.4525
  8.3838  5.5234  3.7704  3.7704  2.4501  2.4501  1.7369  1.3574  1.3574  1.0809
  1.0809  1.0464  0.9538  0.9538  0.8715

 Free energy of the ion-electron system (eV)
  ---------------------------------------------------
  alpha Z        PSCENC =         0.24859894
  Ewald energy   TEWEN  =       129.81913143
  -Hartree energ DENC   =      -285.36408225
  -exchange      EXHF   =         0.00000000
  -V(xc)+E(xc)   XCENC  =        24.84438394
  PAW double counting   =       480.39579989     -481.19105318
  entropy T*S    EENTRO =        -0.00000000
  eigenvalues    EBANDS =       -89.81262273
  atomic energy  EATOM  =       197.04175453
  Solvation  Ediel_sol  =         0.00000000
  ---------------------------------------------------
  free energy    TOTEN  =       -24.01808943 eV

  energy without entropy =      -24.01808943  energy(sigma->0) =      -24.01808943


--------------------------------------------------------------------------------------------------------




--------------------------------------- Iteration      1(  21)  ---------------------------------------


    POTLOK:  cpu time    0.1355: real time    0.1357
    SETDIJ:  cpu time    0.0026: real time    0.0026
    EDDIAG:  cpu time    0.0365: real time    0.0365
  RMM-DIIS:  cpu time    0.1044: real time    0.1047
    ORTHCH:  cpu time    0.0018: real time    0.0018
       DOS:  cpu time    0.0002: real time    0.0002
    --------------------------------------------
      LOOP:  cpu time    0.2808: real time    0.2815

 eigenvalue-minimisations  :    32
 total energy-change (2. order) :-0.1028283E-06  ( 0.0000000E+00)
 number of electron       8.0000002 magnetization 
 augmentation part        0.1879001 magnetization 

 Free energy of the ion-electron system (eV)
  ---------------------------------------------------
  alpha Z        PSCENC =         0.24859894
  Ewald energy   TEWEN  =       129.81913143
  -Hartree energ DENC   =      -285.36472688
  -exchange      EXHF   =         0.00000000
  -V(xc)+E(xc)   XCENC  =        24.84443592
  PAW double counting   =       480.40154805     -481.19680148
  entropy T*S    EENTRO =        -0.00000000
  eigenvalues    EBANDS =       -89.81203004
  atomic energy  EATOM  =       197.04175453
  Solvation  Ediel_sol  =         0.00000000
  ---------------------------------------------------
  free energy    TOTEN  =       -24.01808953 eV

  energy without entropy =      -24.01808953  energy(sigma->0) =      -24.01808953


--------------------------------------------------------------------------------------------------------




 average (electrostatic) potential at core
  the test charge radii are     0.5201  0.6991
  (the norm of the test charge is              1.0000)
       1 -41.6327       2 -41.4776       3 -41.5466       4 -41.5408       5 -57.9008
 
 
 
 E-fermi :  -8.2593     XC(G=0):  -0.7132     alpha+bet : -0.2162


 k-point     1 :       0.2500    0.2500    0.2500
  band No.  band energies     occupation 
      1     -16.9506      2.00000
      2      -9.4180      2.00000
      3      -9.2898      2.00000
      4      -9.2476      2.00000
      5      -0.2982      0.00000
      6       0.5818      0.00000
      7       0.6823      0.00000
      8       0.7061      0.00000

 k-point     2 :      -0.2500    0.2500    0.2500
  band No.  band energies     occupation 
      1     -16.9505      2.00000
      2      -9.4180      2.00000
      3      -9.2898      2.00000
      4      -9.2476      2.00000
      5      -0.2979      0.00000
      6       0.5774      0.00000
      7       0.6780      0.00000
      8       0.7078      0.00000

 k-point     3 :       0.2500   -0.2500    0.2500
  band No.  band energies     occupation 
      1     -16.9505      2.00000
      2      -9.4180      2.00000
      3      -9.2898      2.00000
      4      -9.2476      2.00000
      5      -0.2997      0.00000
      6       0.5795      0.00000
      7       0.6830      0.00000
      8       0.7153      0.00000

 k-point     4 :      -0.2500   -0.2500    0.2500
  band No.  band energies     occupation 
      1     -16.9506      2.00000
      2      -9.4181      2.00000
      3      -9.2898      2.00000
      4      -9.2477      2.00000
      5      -0.3039      0.00000
      6       0.5923      0.00000
      7       0.6961      0.00000
      8       0.7208      0.00000


--------------------------------------------------------------------------------------------------------


 soft charge-density along one line, spin component           1
         0         1         2         3         4         5         6         7         8         9
 total charge-density along one line
 
 pseudopotential strength for first ion, spin component:           1
 -2.342  -4.036  -0.001  -0.001   0.001
 -4.036  -6.869  -0.003  -0.005   0.002
 -0.001  -0.003  -0.336   0.002  -0.001
 -0.001  -0.005   0.002  -0.334  -0.001
  0.001   0.002  -0.001  -0.001  -0.337
 total augmentation occupancy for first ion, spin component:           1
  3.618  -0.648   0.242   0.356  -0.145
 -0.648   0.131  -0.045  -0.065   0.027
  0.242  -0.045   0.023   0.020  -0.008
  0.356  -0.065   0.020   0.039  -0.012
 -0.145   0.027  -0.008  -0.012   0.015


------------------------ aborting loop because EDIFF is reached ----------------------------------------


    CHARGE:  cpu time    0.0171: real time    0.0171
    FORLOC:  cpu time    0.0152: real time    0.0152
    FORNL :  cpu time    0.0216: real time    0.0216
    STRESS:  cpu time    0.1713: real time    0.1716
    FORCOR:  cpu time    0.1352: real time    0.1354
    FORHAR:  cpu time    0.0428: real time    0.0429
    MIXING:  cpu time    0.0073: real time    0.0073
    OFIELD:  cpu time    0.0000: real time    0.0000

  FORCE on cell =-STRESS in cart. coord.  units (eV):
  Direction    XX          YY          ZZ          XY          YZ          ZX
  --------------------------------------------------------------------------------------
  Alpha Z     0.24860     0.24860     0.24860
  Ewald      42.48098    43.33825    43.99986     0.50502    -1.28224    -1.44835
  Hartree    94.99802    95.46481    94.90204     0.27414    -0.67317    -0.40378
  E(xc)     -27.32144   -27.32532   -27.31812     0.00217    -0.00796    -0.00543
  Local    -196.38077  -197.49229  -197.24652    -0.73203     1.87595     1.54809
  n-local   -16.10988   -16.13964   -16.13869     0.00196    -0.02994     0.01437
  augment     0.11395     0.11135     0.10849    -0.00024    -0.00015     0.00261
  Kinetic   101.81235   101.99728   101.61284    -0.10298     0.41980     0.25133
  Fock        0.00000     0.00000     0.00000     0.00000     0.00000     0.00000
  -------------------------------------------------------------------------------------
  Total      -0.15819     0.20304     0.16849    -0.05196     0.30229    -0.04115
  in kB      -0.26010     0.33383     0.27703    -0.08543     0.49701    -0.06767
  external pressure =        0.12 kB  Pullay stress =        0.00 kB

  kinetic pressure (ideal gas correction) =      0.00 kB
  total pressure  =      0.12 kB
  Total+kin.    -0.260       0.334       0.277      -0.085       0.497      -0.068

 VOLUME and BASIS-vectors are now :
 -----------------------------------------------------------------------------
  energy-cutoff  :      400.00
  volume of cell :      974.46
      direct lattice vectors                 reciprocal lattice vectors
     9.926506510  0.000000000  0.000000000     0.100740376 -0.001143830  0.000866373
     0.112090428  9.872125623  0.000000000     0.000000000  0.101295307  0.001988732
    -0.087735173 -0.195229604  9.943947663     0.000000000  0.000000000  0.100563683

  length of vectors
     9.926506510  9.872761953  9.946250911     0.100750595  0.101314828  0.100563683


 FORCES acting on ions
    electron-ion (+dipol)            ewald-force                    non-local-force                 convergence-correction
 -----------------------------------------------------------------------------------------------
   -.172E+02 0.289E+02 0.421E+02   0.192E+02 -.324E+02 -.471E+02   -.185E+01 0.307E+01 0.454E+01   -.122E-04 0.191E-04 0.260E-04
   0.525E+02 -.666E+01 0.337E+01   -.580E+02 0.737E+01 -.375E+01   0.545E+01 -.691E+00 0.350E+00   0.372E-04 -.449E-05 0.172E-05
   -.240E+02 -.477E+02 0.154E+01   0.266E+02 0.530E+02 -.162E+01   -.252E+01 -.503E+01 0.200E+00   -.174E-04 -.357E-04 0.393E-05
   -.112E+02 0.252E+02 -.456E+02   0.125E+02 -.279E+02 0.505E+02   -.116E+01 0.265E+01 -.479E+01   -.648E-05 0.205E-04 -.295E-04
   0.208E+00 0.121E+00 -.173E+01   -.362E+00 -.565E-01 0.198E+01   -.229E+00 0.159E+00 -.245E-01   -.657E-05 0.562E-05 0.227E-05
 -----------------------------------------------------------------------------------------------
   0.308E+00 -.167E+00 -.279E+00   0.538E-14 0.355E-14 -.142E-13   -.309E+00 0.167E+00 0.279E+00   -.551E-05 0.511E-05 0.437E-05
 
 
 POSITION                                       TOTAL-FORCE (eV/Angst)
 -----------------------------------------------------------------------------------
      5.35646      3.94545      3.58581         0.189287     -0.461586     -0.485776
      3.92885      4.65912      4.35801        -0.066553      0.018640     -0.025515
      5.50074      5.49286      4.39556         0.134796      0.296729      0.119745
      5.24267      4.00567      5.36140         0.125338     -0.076565      0.167483
      5.01327      4.52127      4.42883        -0.383170      0.223242      0.224067
 -----------------------------------------------------------------------------------
    total drift:                               -0.000301      0.000459      0.000003


--------------------------------------------------------------------------------------------------------



  FREE ENERGIE OF THE ION-ELECTRON SYSTEM (eV)
  ---------------------------------------------------
  free  energy   TOTEN  =       -24.01808953 eV

  energy  without entropy=      -24.01808953  energy(sigma->0) =      -24.01808953
 


--------------------------------------------------------------------------------------------------------


    POTLOK:  cpu time    0.1406: real time    0.1407


--------------------------------------------------------------------------------------------------------


           RANDOM_SEED =         172237888                0                0
           RANDOM_SEED =         172237888               30                0
   IONSTEP:  cpu time    0.0031: real time    0.0031

  ENERGY OF THE ELECTRON-ION-THERMOSTAT SYSTEM (eV)
  ---------------------------------------------------
% ion-electron   TOTEN  =       -24.018090  see above
  kinetic energy EKIN   =         0.000207
  kin. lattice  EKIN_LAT=         0.000000  (temperature    0.40 K)
  nose potential ES     =         0.000000
  nose kinetic   EPS    =         0.000000
  ---------------------------------------------------
  total energy   ETOTAL =       -24.017883 eV

  maximum distance moved by ions :      0.17E-03

    WAVPRE:  cpu time    0.0421: real time    0.0425
    FEWALD:  cpu time    0.0014: real time    0.0014
    ORTHCH:  cpu time    0.0092: real time    0.0092
     LOOP+:  cpu time    7.2711: real time    7.3020


--------------------------------------- Iteration      2(   1)  ---------------------------------------


    POTLOK:  cpu time    0.1389: real time    0.1395
    SETDIJ:  cpu time    0.0028: real time    0.0028
     EDDAV:  cpu time    0.1448: real time    0.1450
       DOS:  cpu time    0.0002: real time    0.0002
    CHARGE:  cpu time    0.0169: real time    0.0170
    MIXING:  cpu time    0.0072: real time    0.0082
    --------------------------------------------
      LOOP:  cpu time    0.3110: real time    0.3127

 eigenvalue-minimisations  :    64
 total energy-change (2. order) :-0.1589683E-02  (-0.1886974E-03)
 number of electron       8.0000002 magnetization 
 augmentation part        0.1876190 magnetization 

 Broyden mixing:
  rms(total) = 0.23095E-02    rms(broyden)= 0.23084E-02
  rms(prec ) = 0.29751E-02
  weight for this iteration     100.00

 Free energy of the ion-electron system (eV)
  ---------------------------------------------------
  alpha Z        PSCENC =         0.24859894
  Ewald energy   TEWEN  =       129.63372396
  -Hartree energ DENC   =      -285.25949913
  -exchange      EXHF   =         0.00000000
  -V(xc)+E(xc)   XCENC  =        24.83913510
  PAW double counting   =       480.41374237     -481.20899072
  entropy T*S    EENTRO =        -0.00000000
  eigenvalues    EBANDS =       -89.72814416
  atomic energy  EATOM  =       197.04175453
  Solvation  Ediel_sol  =         0.00000000
  ---------------------------------------------------
  free energy    TOTEN  =       -24.01967911 eV

  energy without entropy =      -24.01967911  energy(sigma->0) =      -24.01967911


--------------------------------------------------------------------------------------------------------




--------------------------------------- Iteration      2(   2)  ---------------------------------------


    POTLOK:  cpu time    0.1380: real time    0.1381
    SETDIJ:  cpu time    0.0028: real time    0.0028
    EDDIAG:  cpu time    0.0365: real time    0.0365
  RMM-DIIS:  cpu time    0.1531: real time    0.1533
    ORTHCH:  cpu time    0.0019: real time    0.0019
       DOS:  cpu time    0.0002: real time    0.0002
    CHARGE:  cpu time    0.0167: real time    0.0167
    MIXING:  cpu time    0.0052: real time    0.0052
    --------------------------------------------
      LOOP:  cpu time    0.3543: real time    0.3547

 eigenvalue-minimisations  :    64
 total energy-change (2. order) : 0.1343127E-04  (-0.4082008E-05)
 number of electron       8.0000002 magnetization 
 augmentation part        0.1876434 magnetization 

 Broyden mixing:
  rms(total) = 0.11333E-02    rms(broyden)= 0.11332E-02
  rms(prec ) = 0.14007E-02
  weight for this iteration     100.00

 eigenvalues of (default mixing * dielectric matrix)
  average eigenvalue GAMMA=   1.8026
  1.8026

 Free energy of the ion-electron system (eV)
  ---------------------------------------------------
  alpha Z        PSCENC =         0.24859894
  Ewald energy   TEWEN  =       129.63372396
  -Hartree energ DENC   =      -285.22320495
  -exchange      EXHF   =         0.00000000
  -V(xc)+E(xc)   XCENC  =        24.83713965
  PAW double counting   =       479.86488008     -480.65971049
  entropy T*S    EENTRO =        -0.00000000
  eigenvalues    EBANDS =       -89.76284740
  atomic energy  EATOM  =       197.04175453
  Solvation  Ediel_sol  =         0.00000000
  ---------------------------------------------------
  free energy    TOTEN  =       -24.01966568 eV

  energy without entropy =      -24.01966568  energy(sigma->0) =      -24.01966568


--------------------------------------------------------------------------------------------------------




--------------------------------------- Iteration      2(   3)  ---------------------------------------


    POTLOK:  cpu time    0.1286: real time    0.1300
    SETDIJ:  cpu time    0.0024: real time    0.0024
    EDDIAG:  cpu time    0.0351: real time    0.0352
  RMM-DIIS:  cpu time    0.1519: real time    0.1521
    ORTHCH:  cpu time    0.0017: real time    0.0017
       DOS:  cpu time    0.0002: real time    0.0002
    CHARGE:  cpu time    0.0171: real time    0.0172
    MIXING:  cpu time    0.0055: real time    0.0055
    --------------------------------------------
      LOOP:  cpu time    0.3426: real time    0.3444

 eigenvalue-minimisations  :    64
 total energy-change (2. order) : 0.1407720E-05  (-0.2758543E-05)
 number of electron       8.0000002 magnetization 
 augmentation part        0.1876868 magnetization 

 Broyden mixing:
  rms(total) = 0.44585E-03    rms(broyden)= 0.44555E-03
  rms(prec ) = 0.55026E-03
  weight for this iteration     100.00

 eigenvalues of (default mixing * dielectric matrix)
  average eigenvalue GAMMA=   1.2402
  0.7764  1.7040

 Free energy of the ion-electron system (eV)
  ---------------------------------------------------
  alpha Z        PSCENC =         0.24859894
  Ewald energy   TEWEN  =       129.63372396
  -Hartree energ DENC   =      -285.19720158
  -exchange      EXHF   =         0.00000000
  -V(xc)+E(xc)   XCENC  =        24.83569451
  PAW double counting   =       479.41044494     -480.20493558
  entropy T*S    EENTRO =        -0.00000000
  eigenvalues    EBANDS =       -89.78774399
  atomic energy  EATOM  =       197.04175453
  Solvation  Ediel_sol  =         0.00000000
  ---------------------------------------------------
  free energy    TOTEN  =       -24.01966427 eV

  energy without entropy =      -24.01966427  energy(sigma->0) =      -24.01966427


--------------------------------------------------------------------------------------------------------




--------------------------------------- Iteration      2(   4)  ---------------------------------------


    POTLOK:  cpu time    0.1319: real time    0.1325
    SETDIJ:  cpu time    0.0030: real time    0.0030
    EDDIAG:  cpu time    0.0367: real time    0.0367
  RMM-DIIS:  cpu time    0.1253: real time    0.1255
    ORTHCH:  cpu time    0.0017: real time    0.0017
       DOS:  cpu time    0.0002: real time    0.0002
    --------------------------------------------
      LOOP:  cpu time    0.2987: real time    0.2996

 eigenvalue-minimisations  :    48
 total energy-change (2. order) : 0.2311870E-06  (-0.4623269E-07)
 number of electron       8.0000002 magnetization 
 augmentation part        0.1876868 magnetization 

 Free energy of the ion-electron system (eV)
  ---------------------------------------------------
  alpha Z        PSCENC =         0.24859894
  Ewald energy   TEWEN  =       129.63372396
  -Hartree energ DENC   =      -285.20255115
  -exchange      EXHF   =         0.00000000
  -V(xc)+E(xc)   XCENC  =        24.83592973
  PAW double counting   =       479.39236090     -480.18692113
  entropy T*S    EENTRO =        -0.00000000
  eigenvalues    EBANDS =       -89.78255981
  atomic energy  EATOM  =       197.04175453
  Solvation  Ediel_sol  =         0.00000000
  ---------------------------------------------------
  free energy    TOTEN  =       -24.01966404 eV

  energy without entropy =      -24.01966404  energy(sigma->0) =      -24.01966404


--------------------------------------------------------------------------------------------------------




 average (electrostatic) potential at core
  the test charge radii are     0.5201  0.6991
  (the norm of the test charge is              1.0000)
       1 -41.6189       2 -41.4778       3 -41.5411       4 -41.5374       5 -57.9065
 
 
 
 E-fermi :  -8.3203     XC(G=0):  -0.6888     alpha+bet : -0.2162


 k-point     1 :       0.2500    0.2500    0.2500
  band No.  band energies     occupation 
      1     -16.9447      2.00000
      2      -9.4126      2.00000
      3      -9.2859      2.00000
      4      -9.2481      2.00000
      5      -0.2904      0.00000
      6       0.6034      0.00000
      7       0.6977      0.00000
      8       0.7230      0.00000

 k-point     2 :      -0.2500    0.2500    0.2500
  band No.  band energies     occupation 
      1     -16.9446      2.00000
      2      -9.4126      2.00000
      3      -9.2859      2.00000
      4      -9.2481      2.00000
      5      -0.2900      0.00000
      6       0.5982      0.00000
      7       0.6938      0.00000
      8       0.7251      0.00000

 k-point     3 :       0.2500   -0.2500    0.2500
  band No.  band energies     occupation 
      1     -16.9446      2.00000
      2      -9.4126      2.00000
      3      -9.2860      2.00000
      4      -9.2480      2.00000
      5      -0.2919      0.00000
      6       0.6008      0.00000
      7       0.6983      0.00000
      8       0.7325      0.00000

 k-point     4 :      -0.2500   -0.2500    0.2500
  band No.  band energies     occupation 
      1     -16.9447      2.00000
      2      -9.4127      2.00000
      3      -9.2860      2.00000
      4      -9.2481      2.00000
      5      -0.2959      0.00000
      6       0.6144      0.00000
      7       0.7104      0.00000
      8       0.7375      0.00000


--------------------------------------------------------------------------------------------------------


 soft charge-density along one line, spin component           1
         0         1         2         3         4         5         6         7         8         9
 total charge-density along one line
 
 pseudopotential strength for first ion, spin component:           1
 -2.342  -4.036  -0.001  -0.001   0.001
 -4.036  -6.869  -0.003  -0.005   0.002
 -0.001  -0.003  -0.336   0.002  -0.001
 -0.001  -0.005   0.002  -0.335  -0.001
  0.001   0.002  -0.001  -0.001  -0.337
 total augmentation occupancy for first ion, spin component:           1
  3.612  -0.647   0.241   0.354  -0.144
 -0.647   0.131  -0.045  -0.065   0.026
  0.241  -0.045   0.023   0.020  -0.008
  0.354  -0.065   0.020   0.039  -0.012
 -0.144   0.026  -0.008  -0.012   0.015


------------------------ aborting loop because EDIFF is reached ----------------------------------------


    CHARGE:  cpu time    0.0173: real time    0.0173
    FORLOC:  cpu time    0.0150: real time    0.0151
    FORNL :  cpu time    0.0219: real time    0.0219
    STRESS:  cpu time    0.1719: real time    0.1721
    FORCOR:  cpu time    0.1373: real time    0.1375
    FORHAR:  cpu time    0.0451: real time    0.0452
    MIXING:  cpu time    0.0064: real time    0.0064
    OFIELD:  cpu time    0.0000: real time    0.0000

  FORCE on cell =-STRESS in cart. coord.  units (eV):
  Direction    XX          YY          ZZ          XY          YZ          ZX
  --------------------------------------------------------------------------------------
  Alpha Z     0.24860     0.24860     0.24860
  Ewald      42.45169    43.27925    43.90274     0.49947    -1.28548    -1.40434
  Hartree    94.93900    95.41981    94.85230     0.27120    -0.66067    -0.40077
  E(xc)     -27.31241   -27.31603   -27.30893     0.00211    -0.00770    -0.00538
  Local    -196.28530  -197.40207  -197.12516    -0.72340     1.85594     1.51614
  n-local   -16.09302   -16.11967   -16.11823     0.00176    -0.02776     0.01306
  augment     0.11409     0.11176     0.10902    -0.00026     0.00000     0.00244
  Kinetic   101.76570   101.93802   101.55914    -0.10009     0.40651     0.24886
  Fock        0.00000     0.00000     0.00000     0.00000     0.00000     0.00000
  -------------------------------------------------------------------------------------
  Total      -0.17165     0.15967     0.11948    -0.04921     0.28085    -0.02998
  in kB      -0.28222     0.26252     0.19645    -0.08090     0.46176    -0.04930
  external pressure =        0.06 kB  Pullay stress =        0.00 kB

  kinetic pressure (ideal gas correction) =      0.00 kB
  total pressure  =      0.06 kB
  Total+kin.    -0.282       0.264       0.198      -0.081       0.463      -0.050

 VOLUME and BASIS-vectors are now :
 -----------------------------------------------------------------------------
  energy-cutoff  :      400.00
[...]
 -----------------------------------------------------------------------------------------------
   -.235E+00 0.115E+00 0.261E+00   0.000E+00 0.000E+00 0.000E+00   0.234E+00 -.115E+00 -.261E+00   0.154E-04 -.745E-04 -.551E-04
 
 
 POSITION                                       TOTAL-FORCE (eV/Angst)
 -----------------------------------------------------------------------------------
      5.36544      3.91964      3.56263        -0.160755      0.237146      0.414527
      3.92473      4.66034      4.35610         0.030844     -0.006555     -0.005329
      5.50791      5.50851      4.40495        -0.096116     -0.211239      0.049367
      5.25148      4.00203      5.36993         0.003941      0.075966     -0.139913
      5.01153      4.52232      4.42943         0.221765     -0.095482     -0.318623
 -----------------------------------------------------------------------------------
    total drift:                               -0.000322     -0.000164      0.000029


--------------------------------------------------------------------------------------------------------



  FREE ENERGIE OF THE ION-ELECTRON SYSTEM (eV)
  ---------------------------------------------------
  free  energy   TOTEN  =       -24.02369848 eV

  energy  without entropy=      -24.02369848  energy(sigma->0) =      -24.02369848
 
 d Force =-0.2249375E-02[-0.267E-02,-0.183E-02]  d Energy =-0.2251011E-02 0.164E-05
 d Force = 0.4785787E+00[ 0.478E+00, 0.480E+00]  d Ewald  = 0.4785775E+00 0.125E-05


--------------------------------------------------------------------------------------------------------


    POTLOK:  cpu time    0.1398: real time    0.1400


--------------------------------------------------------------------------------------------------------


           RANDOM_SEED =         172237888               30                0
   IONSTEP:  cpu time    0.0001: real time    0.0001

  ENERGY OF THE ELECTRON-ION-THERMOSTAT SYSTEM (eV)
  ---------------------------------------------------
% ion-electron   TOTEN  =       -24.023698  see above
  kinetic energy EKIN   =         0.005740
  kin. lattice  EKIN_LAT=         0.000000  (temperature   11.10 K)
  nose potential ES     =         0.000000
  nose kinetic   EPS    =         0.000000
  ---------------------------------------------------
  total energy   ETOTAL =       -24.017959 eV

  maximum distance moved by ions :      0.35E-03

    WAVPRE:  cpu time    0.0490: real time    0.0494
    FEWALD:  cpu time    0.0014: real time    0.0014
    ORTHCH:  cpu time    0.0094: real time    0.0094
 Prediction of Wavefunctions ALPHA= 2.157 BETA=-1.192
     LOOP+:  cpu time    2.8142: real time    2.8215


--------------------------------------- Iteration     10(   1)  ---------------------------------------


    POTLOK:  cpu time    0.1320: real time    0.1322
    SETDIJ:  cpu time    0.0031: real time    0.0031
     EDDAV:  cpu time    0.1434: real time    0.1489
       DOS:  cpu time    0.0003: real time    0.0003
    CHARGE:  cpu time    0.0174: real time    0.0174
    MIXING:  cpu time    0.0079: real time    0.0080
    --------------------------------------------
      LOOP:  cpu time    0.3041: real time    0.3099

 eigenvalue-minimisations  :    64
 total energy-change (2. order) : 0.2061399E-02  (-0.1548464E-04)
 number of electron       8.0000004 magnetization 
 augmentation part        0.1828210 magnetization 

 Broyden mixing:
  rms(total) = 0.10810E-03    rms(broyden)= 0.10795E-03
  rms(prec ) = 0.12721E-03
  weight for this iteration     100.00

 Free energy of the ion-electron system (eV)
  ---------------------------------------------------
  alpha Z        PSCENC =         0.24859894
  Ewald energy   TEWEN  =       125.54713855
  -Hartree energ DENC   =      -281.61332768
  -exchange      EXHF   =         0.00000000
  -V(xc)+E(xc)   XCENC  =        24.64620521
  PAW double counting   =       454.71657046     -455.49679144
  entropy T*S    EENTRO =        -0.00000000
  eigenvalues    EBANDS =       -89.11178536
  atomic energy  EATOM  =       197.04175453
  Solvation  Ediel_sol  =         0.00000000
  ---------------------------------------------------
  free energy    TOTEN  =       -24.02163679 eV

  energy without entropy =      -24.02163679  energy(sigma->0) =      -24.02163679


--------------------------------------------------------------------------------------------------------




--------------------------------------- Iteration     10(   2)  ---------------------------------------


    POTLOK:  cpu time    0.1315: real time    0.1318
    SETDIJ:  cpu time    0.0026: real time    0.0026
    EDDIAG:  cpu time    0.0347: real time    0.0348
  RMM-DIIS:  cpu time    0.1367: real time    0.1376
    ORTHCH:  cpu time    0.0021: real time    0.0021
       DOS:  cpu time    0.0002: real time    0.0002
    CHARGE:  cpu time    0.0166: real time    0.0166
    MIXING:  cpu time    0.0050: real time    0.0050
    --------------------------------------------
      LOOP:  cpu time    0.3295: real time    0.3307

 eigenvalue-minimisations  :    52
 total energy-change (2. order) :-0.4312726E-06  (-0.1998913E-06)
 number of electron       8.0000004 magnetization 
 augmentation part        0.1828268 magnetization 

 Broyden mixing:
  rms(total) = 0.52074E-04    rms(broyden)= 0.51954E-04
  rms(prec ) = 0.68752E-04
  weight for this iteration     100.00

 eigenvalues of (default mixing * dielectric matrix)
  average eigenvalue GAMMA=   0.9634
  0.9634

 Free energy of the ion-electron system (eV)
  ---------------------------------------------------
  alpha Z        PSCENC =         0.24859894
  Ewald energy   TEWEN  =       125.54713855
  -Hartree energ DENC   =      -281.61424749
  -exchange      EXHF   =         0.00000000
  -V(xc)+E(xc)   XCENC  =        24.64624410
  PAW double counting   =       454.70606590     -455.48629517
  entropy T*S    EENTRO =        -0.00000000
  eigenvalues    EBANDS =       -89.11089658
  atomic energy  EATOM  =       197.04175453
  Solvation  Ediel_sol  =         0.00000000
  ---------------------------------------------------
  free energy    TOTEN  =       -24.02163722 eV

  energy without entropy =      -24.02163722  energy(sigma->0) =      -24.02163722


--------------------------------------------------------------------------------------------------------




--------------------------------------- Iteration     10(   3)  ---------------------------------------


    POTLOK:  cpu time    0.1289: real time    0.1296
    SETDIJ:  cpu time    0.0026: real time    0.0026
    EDDIAG:  cpu time    0.0340: real time    0.0340
  RMM-DIIS:  cpu time    0.1226: real time    0.1229
    ORTHCH:  cpu time    0.0018: real time    0.0018
       DOS:  cpu time    0.0002: real time    0.0002
    CHARGE:  cpu time    0.0167: real time    0.0167
    MIXING:  cpu time    0.0053: real time    0.0053
    --------------------------------------------
      LOOP:  cpu time    0.3121: real time    0.3131

 eigenvalue-minimisations  :    48
 total energy-change (2. order) :-0.1891727E-06  (-0.1358943E-07)
 number of electron       8.0000004 magnetization 
 augmentation part        0.1828271 magnetization 

 Broyden mixing:
  rms(total) = 0.30193E-04    rms(broyden)= 0.30177E-04
  rms(prec ) = 0.41387E-04
  weight for this iteration     100.00

 eigenvalues of (default mixing * dielectric matrix)
  average eigenvalue GAMMA=   1.4257
  1.2773  1.5741

 Free energy of the ion-electron system (eV)
  ---------------------------------------------------
  alpha Z        PSCENC =         0.24859894
  Ewald energy   TEWEN  =       125.54713855
  -Hartree energ DENC   =      -281.61501384
  -exchange      EXHF   =         0.00000000
  -V(xc)+E(xc)   XCENC  =        24.64628446
  PAW double counting   =       454.70072822     -455.48096744
  entropy T*S    EENTRO =        -0.00000000
  eigenvalues    EBANDS =       -89.11016082
  atomic energy  EATOM  =       197.04175453
  Solvation  Ediel_sol  =         0.00000000
  ---------------------------------------------------
  free energy    TOTEN  =       -24.02163741 eV

  energy without entropy =      -24.02163741  energy(sigma->0) =      -24.02163741


--------------------------------------------------------------------------------------------------------




--------------------------------------- Iteration     10(   4)  ---------------------------------------


    POTLOK:  cpu time    0.1297: real time    0.1300
    SETDIJ:  cpu time    0.0031: real time    0.0031
    EDDIAG:  cpu time    0.0360: real time    0.0360
  RMM-DIIS:  cpu time    0.1067: real time    0.1068
    ORTHCH:  cpu time    0.0017: real time    0.0017
       DOS:  cpu time    0.0002: real time    0.0002
    --------------------------------------------
      LOOP:  cpu time    0.2772: real time    0.2778

 eigenvalue-minimisations  :    36
 total energy-change (2. order) :-0.2628600E-06  (-0.1849397E-08)
 number of electron       8.0000004 magnetization 
 augmentation part        0.1828271 magnetization 

 Free energy of the ion-electron system (eV)
  ---------------------------------------------------
  alpha Z        PSCENC =         0.24859894
  Ewald energy   TEWEN  =       125.54713855
  -Hartree energ DENC   =      -281.61575638
  -exchange      EXHF   =         0.00000000
  -V(xc)+E(xc)   XCENC  =        24.64632725
  PAW double counting   =       454.69642352     -455.47667170
  entropy T*S    EENTRO =        -0.00000000
  eigenvalues    EBANDS =       -89.10945238
  atomic energy  EATOM  =       197.04175453
  Solvation  Ediel_sol  =         0.00000000
  ---------------------------------------------------
  free energy    TOTEN  =       -24.02163767 eV

  energy without entropy =      -24.02163767  energy(sigma->0) =      -24.02163767


--------------------------------------------------------------------------------------------------------




 average (electrostatic) potential at core
  the test charge radii are     0.5201  0.6991
  (the norm of the test charge is              1.0000)
       1 -41.3532       2 -41.4870       3 -41.4319       4 -41.4643       5 -58.0115
 
 
 
 E-fermi :  -8.2627     XC(G=0):  -0.7096     alpha+bet : -0.2162


 k-point     1 :       0.2500    0.2500    0.2500
  band No.  band energies     occupation 
      1     -16.8112      2.00000
      2      -9.2809      2.00000
      3      -9.2647      2.00000
      4      -9.1980      2.00000
      5      -0.3213      0.00000
      6       0.5833      0.00000
      7       0.6781      0.00000
      8       0.7035      0.00000

 k-point     2 :      -0.2500    0.2500    0.2500
  band No.  band energies     occupation 
      1     -16.8112      2.00000
      2      -9.2809      2.00000
      3      -9.2647      2.00000
      4      -9.1980      2.00000
      5      -0.3206      0.00000
      6       0.5748      0.00000
      7       0.6753      0.00000
      8       0.7048      0.00000

 k-point     3 :       0.2500   -0.2500    0.2500
  band No.  band energies     occupation 
      1     -16.8112      2.00000
      2      -9.2809      2.00000
      3      -9.2645      2.00000
      4      -9.1979      2.00000
      5      -0.3231      0.00000
      6       0.5847      0.00000
      7       0.6780      0.00000
      8       0.7104      0.00000

 k-point     4 :      -0.2500   -0.2500    0.2500
  band No.  band energies     occupation 
      1     -16.8112      2.00000
      2      -9.2809      2.00000
      3      -9.2647      2.00000
      4      -9.1980      2.00000
      5      -0.3269      0.00000
      6       0.5963      0.00000
      7       0.6903      0.00000
      8       0.7162      0.00000


--------------------------------------------------------------------------------------------------------


 soft charge-density along one line, spin component           1
         0         1         2         3         4         5         6         7         8         9
 total charge-density along one line
 
 pseudopotential strength for first ion, spin component:           1
 -2.340  -4.031  -0.001  -0.001   0.001
 -4.031  -6.860  -0.003  -0.004   0.002
 -0.001  -0.003  -0.338   0.002  -0.001
 -0.001  -0.004   0.002  -0.337  -0.001
  0.001   0.002  -0.001  -0.001  -0.339
 total augmentation occupancy for first ion, spin component:           1
  3.473  -0.627   0.221   0.318  -0.130
 -0.627   0.127  -0.041  -0.059   0.024
  0.221  -0.041   0.020   0.017  -0.007
  0.318  -0.059   0.017   0.032  -0.010
 -0.130   0.024  -0.007  -0.010   0.012


------------------------ aborting loop because EDIFF is reached ----------------------------------------


    CHARGE:  cpu time    0.0169: real time    0.0169
    FORLOC:  cpu time    0.0158: real time    0.0159
    FORNL :  cpu time    0.0211: real time    0.0236
    STRESS:  cpu time    0.1674: real time    0.1721
    FORCOR:  cpu time    0.1397: real time    0.1399
    FORHAR:  cpu time    0.0438: real time    0.0438
    MIXING:  cpu time    0.0052: real time    0.0052
    OFIELD:  cpu time    0.0000: real time    0.0000

  FORCE on cell =-STRESS in cart. coord.  units (eV):
  Direction    XX          YY          ZZ          XY          YZ          ZX
  --------------------------------------------------------------------------------------
  Alpha Z     0.24860     0.24860     0.24860
  Ewald      41.81717    42.16318    41.56675     0.25998    -0.96466    -0.12614
  Hartree    93.59037    94.41209    93.61356     0.17770    -0.30894    -0.22311
  E(xc)     -27.10972   -27.10774   -27.10506     0.00028    -0.00082    -0.00186
  Local    -194.15695  -195.54911  -194.11796    -0.41382     1.04618     0.41971
  n-local   -15.70561   -15.67073   -15.66169    -0.00236     0.01816    -0.01289
  augment     0.11882     0.12103     0.12097    -0.00019     0.00197    -0.00077
  Kinetic   100.64364   100.52903   100.38679    -0.01121     0.04187     0.08965
  Fock        0.00000     0.00000     0.00000     0.00000     0.00000     0.00000
  -------------------------------------------------------------------------------------
  Total      -0.55368    -0.85366    -0.94804     0.01037    -0.16624     0.14459
  in kB      -0.91034    -1.40355    -1.55873     0.01706    -0.27332     0.23773
  external pressure =       -1.29 kB  Pullay stress =        0.00 kB

  kinetic pressure (ideal gas correction) =      0.01 kB
  total pressure  =     -1.29 kB
  Total+kin.    -0.908      -1.395      -1.554       0.016      -0.269       0.239

 VOLUME and BASIS-vectors are now :
 -----------------------------------------------------------------------------
  energy-cutoff  :      400.00
  volume of cell :      974.46
      direct lattice vectors                 reciprocal lattice vectors
     9.926506510  0.000000000  0.000000000     0.100740376 -0.001143830  0.000866373
     0.112090428  9.872125623  0.000000000     0.000000000  0.101295307  0.001988732
    -0.087735173 -0.195229604  9.943947663     0.000000000  0.000000000  0.100563683

  length of vectors
     9.926506510  9.872761953  9.946250911     0.100750595  0.101314828  0.100563683


 FORCES acting on ions
    electron-ion (+dipol)            ewald-force                    non-local-force                 convergence-correction
 -----------------------------------------------------------------------------------------------
   -.165E+02 0.281E+02 0.403E+02   0.180E+02 -.307E+02 -.439E+02   -.166E+01 0.283E+01 0.406E+01   0.692E-05 -.104E-04 -.538E-05
   0.521E+02 -.661E+01 0.350E+01   -.574E+02 0.729E+01 -.387E+01   0.543E+01 -.690E+00 0.368E+00   -.347E-04 -.701E-05 0.945E-06
   -.235E+02 -.467E+02 0.102E+01   0.258E+02 0.512E+02 -.110E+01   -.241E+01 -.480E+01 0.116E+00   0.214E-04 0.222E-04 -.138E-05
   -.115E+02 0.247E+02 -.448E+02   0.127E+02 -.272E+02 0.492E+02   -.119E+01 0.256E+01 -.463E+01   0.101E-04 -.303E-04 0.332E-04
   -.827E+00 0.512E+00 0.248E+00   0.988E+00 -.594E+00 -.379E+00   0.107E+00 -.383E-01 -.211E+00   0.467E-04 -.728E-04 -.248E-04
 -----------------------------------------------------------------------------------------------
   -.276E+00 0.136E+00 0.296E+00   -.355E-14 -.355E-14 0.711E-14   0.275E+00 -.136E+00 -.296E+00   0.505E-04 -.983E-04 0.263E-05
 
 
 POSITION                                       TOTAL-FORCE (eV/Angst)
 -----------------------------------------------------------------------------------
      5.36599      3.91656      3.56122        -0.184270      0.297262      0.477525
      3.92415      4.66053      4.35571         0.045966     -0.010427     -0.000161
      5.50857      5.50997      4.40697        -0.115868     -0.255814      0.034267
      5.25311      4.00186      5.37059        -0.014484      0.089628     -0.168412
      5.01134      4.52245      4.42936         0.268213     -0.120626     -0.342939
 -----------------------------------------------------------------------------------
    total drift:                               -0.000442      0.000023      0.000280


--------------------------------------------------------------------------------------------------------



  FREE ENERGIE OF THE ION-ELECTRON SYSTEM (eV)
  ---------------------------------------------------
  free  energy   TOTEN  =       -24.02163767 eV

  energy  without entropy=      -24.02163767  energy(sigma->0) =      -24.02163767
 
 d Force =-0.2059472E-02[-0.229E-02,-0.183E-02]  d Energy =-0.2060810E-02 0.134E-05
 d Force = 0.3502628E+00[ 0.350E+00, 0.351E+00]  d Ewald  = 0.3502627E+00 0.120E-06


--------------------------------------------------------------------------------------------------------


    POTLOK:  cpu time    0.1339: real time    0.1345


--------------------------------------------------------------------------------------------------------


           RANDOM_SEED =         172237888               30                0
   IONSTEP:  cpu time    0.0001: real time    0.0001

  ENERGY OF THE ELECTRON-ION-THERMOSTAT SYSTEM (eV)
  ---------------------------------------------------
% ion-electron   TOTEN  =       -24.021638  see above
  kinetic energy EKIN   =         0.003721
  kin. lattice  EKIN_LAT=         0.000000  (temperature    7.20 K)
  nose potential ES     =         0.000000
  nose kinetic   EPS    =         0.000000
  ---------------------------------------------------
  total energy   ETOTAL =       -24.017916 eV

  maximum distance moved by ions :      0.24E-03


 mean value of Nose-termostat <S>:     1.000 mean value of <T> :    11.555
 mean temperature <T/S>/<1/S>  :    11.555

    WAVPRE:  cpu time    0.0521: real time    0.0524
    FEWALD:  cpu time    0.0012: real time    0.0012
    ORTHCH:  cpu time    0.0092: real time    0.0092
 Prediction of Wavefunctions ALPHA= 2.093 BETA=-1.120
    POTLOK:  cpu time    0.1327: real time    0.1330
    EDDIAG:  cpu time    0.0364: real time    0.0364
     LOOP+:  cpu time    2.0034: real time    2.0208
    4ORBIT:  cpu time    0.0000: real time    0.0000

 total amount of memory used by VASP MPI-rank0    54543. kBytes
=======================================================================

   base      :      30000. kBytes
   nonl-proj :       2621. kBytes
   fftplans  :       7845. kBytes
   grid      :      12367. kBytes
   one-center:          6. kBytes
   wavefun   :       1704. kBytes
 
  
  
 General timing and accounting informations for this job:
 ========================================================
  
                  Total CPU time used (sec):       29.366
                            User time (sec):       26.135
                          System time (sec):        3.231
                         Elapsed time (sec):       29.897
  
                   Maximum memory used (kb):      181960.
                   Average memory used (kb):           0.
  
                          Minor page faults:       253877
                          Major page faults:            3
                 Voluntary context switches:           73
