 vasp.5.4.4.18Apr17-6-g9f103f2a35 (build Jul 09 2021 13:05:15) complex          
  
 executed on             LinuxIFC date 2021.11.04  19:02:37
 running on   16 total cores
 distrk:  each k-point on   16 cores,    1 groups
 distr:  one band on NCORES_PER_BAND=   4 cores,    4 groups


--------------------------------------------------------------------------------------------------------


 INCAR:
 POTCAR:    PAW_PBE H 15Jun2001                   
 POTCAR:    PAW_PBE C 08Apr2002                   
 POTCAR:    PAW_PBE H 15Jun2001                   
   VRHFIN =H: ultrasoft test                                                    
   LEXCH  = PE                                                                  
   EATOM  =    12.4884 eV,    0.9179 Ry                                         
                                                                                
   TITEL  = PAW_PBE H 15Jun2001                                                 
   LULTRA =        F    use ultrasoft PP ?                                      
   IUNSCR =        0    unscreen: 0-lin 1-nonlin 2-no                           
   RPACOR =    0.000    partial core radius                                     
   POMASS =    1.000; ZVAL   =    1.000    mass and valenz                      
   RCORE  =    1.100    outmost cutoff radius                                   
   RWIGS  =    0.700; RWIGS  =    0.370    wigner-seitz radius (au A)           
   ENMAX  =  250.000; ENMIN  =  200.000 eV                                      
   RCLOC  =    0.701    cutoff for local pot                                    
   LCOR   =        T    correct aug charges                                     
   LPAW   =        T    paw PP                                                  
   EAUG   =  400.000                                                            
   RMAX   =    1.123    core radius for proj-oper                               
   RAUG   =    1.200    factor for augmentation sphere                          
   RDEP   =    1.112    radius for radial grids                                 
   RDEPT  =    0.926    core radius for aug-charge                              
                                                                                
   Atomic configuration                                                         
    2 entries                                                                   
     n  l   j            E        occ.                                          
     1  0  0.50        -6.4927   1.0000                                         
     2  1  0.50        -3.4015   0.0000                                         
   Description                                                                  
     l       E           TYP  RCUT    TYP  RCUT                                 
     0     -6.4927494     23  1.100                                             
     0      6.8029130     23  1.100                                             
     1     -4.0817478     23  1.100                                             
  local pseudopotential read in
  atomic valenz-charges read in
  non local Contribution for L=           0  read in
    real space projection operators read in
  non local Contribution for L=           0  read in
    real space projection operators read in
  non local Contribution for L=           1  read in
    real space projection operators read in
    PAW grid and wavefunctions read in
 
   number of l-projection  operators is LMAX  =           3
   number of lm-projection operators is LMMAX =           5
 
 POTCAR:    PAW_PBE C 08Apr2002                   
   VRHFIN =C: s2p2                                                              
   LEXCH  = PE                                                                  
   EATOM  =   147.1560 eV,   10.8157 Ry                                         
                                                                                
   TITEL  = PAW_PBE C 08Apr2002                                                 
   LULTRA =        F    use ultrasoft PP ?                                      
   IUNSCR =        1    unscreen: 0-lin 1-nonlin 2-no                           
   RPACOR =    1.200    partial core radius                                     
   POMASS =   12.011; ZVAL   =    4.000    mass and valenz                      
   RCORE  =    1.500    outmost cutoff radius                                   
   RWIGS  =    1.630; RWIGS  =    0.863    wigner-seitz radius (au A)           
   ENMAX  =  400.000; ENMIN  =  300.000 eV                                      
   ICORE  =        2    local potential                                         
   LCOR   =        T    correct aug charges                                     
   LPAW   =        T    paw PP                                                  
   EAUG   =  644.873                                                            
   DEXC   =    0.000                                                            
   RMAX   =    1.529    core radius for proj-oper                               
   RAUG   =    1.300    factor for augmentation sphere                          
   RDEP   =    1.501    radius for radial grids                                 
   RDEPT  =    1.300    core radius for aug-charge                              
                                                                                
   Atomic configuration                                                         
    4 entries                                                                   
     n  l   j            E        occ.                                          
     1  0  0.50      -273.3789   2.0000                                         
     2  0  0.50       -13.7508   2.0000                                         
     2  1  0.50        -5.2854   2.0000                                         
     3  2  1.50        -5.4423   0.0000                                         
   Description                                                                  
     l       E           TYP  RCUT    TYP  RCUT                                 
     0    -13.7508458     23  1.200                                             
     0     -8.2022199     23  1.200                                             
     1     -5.2854383     23  1.500                                             
     1     34.0145650     23  1.500                                             
     2     -5.4423304      7  1.500                                             
  local pseudopotential read in
  partial core-charges read in
  partial kinetic energy density read in
  atomic valenz-charges read in
  non local Contribution for L=           0  read in
    real space projection operators read in
  non local Contribution for L=           0  read in
    real space projection operators read in
  non local Contribution for L=           1  read in
    real space projection operators read in
  non local Contribution for L=           1  read in
    real space projection operators read in
    PAW grid and wavefunctions read in
 
   number of l-projection  operators is LMAX  =           4
   number of lm-projection operators is LMMAX =           8
 
  PAW_PBE H 15Jun2001                   :
 energy of atom  1       EATOM=  -12.4884
 kinetic energy error for atom=    0.0098 (will be added to EATOM!!)
  PAW_PBE C 08Apr2002                   :
 energy of atom  2       EATOM= -147.1560
 kinetic energy error for atom=    0.0288 (will be added to EATOM!!)
 
 
 POSCAR:  H  C                                   
  positions in cartesian coordinates
  No initial velocities read in
 exchange correlation table for  LEXCH =        8
   RHO(1)=    0.500       N(1)  =     2000
   RHO(2)=  100.500       N(2)  =     4000
 


--------------------------------------------------------------------------------------------------------


 ion  position               nearest neighbor table
   1  0.538  0.407  0.360-   5 1.10
   2  0.394  0.480  0.439-   5 1.10
   3  0.552  0.565  0.443-   5 1.10
   4  0.527  0.416  0.539-   5 1.13
   5  0.503  0.467  0.445-   2 1.10   1 1.10   3 1.10   4 1.13
 

IMPORTANT INFORMATION: All symmetrisations will be switched off!
NOSYMM: (Re-)initialisation of all symmetry stuff for point group C_1.

 
 

Automatic generation of k-mesh.
 generate k-points for:    2    2    2
Space group operators:
 irot       det(A)        alpha          n_x          n_y          n_z        tau_x        tau_y        tau_z
    1     1.000000     0.000001     1.000000     0.000000     0.000000     0.000000     0.000000     0.000000
 
 Subroutine IBZKPT returns following result:
 ===========================================
 
 Found      4 irreducible k-points:
 
 Following reciprocal coordinates:
            Coordinates               Weight
  0.250000  0.250000  0.250000      2.000000
 -0.250000  0.250000  0.250000      2.000000
  0.250000 -0.250000  0.250000      2.000000
 -0.250000 -0.250000  0.250000      2.000000
 
 Following cartesian coordinates:
            Coordinates               Weight
  0.024988  0.025063  0.024448      2.000000
 -0.024988  0.024057  0.025474      2.000000
  0.024988 -0.024057  0.023812      2.000000
 -0.024988 -0.025063  0.024838      2.000000
 


--------------------------------------------------------------------------------------------------------




 Dimension of arrays:
   k-points           NKPTS =      4   k-points in BZ     NKDIM =      4   number of bands    NBANDS=      8
   number of dos      NEDOS =    301   number of ions     NIONS =      5
   non local maximal  LDIM  =      4   non local SUM 2l+1 LMDIM =      8
   total plane-waves  NPLWV = 343000
   max r-space proj   IRMAX =      1   max aug-charges    IRDMAX=   4117
   dimension x,y,z NGX =    70 NGY =   70 NGZ =   70
   dimension x,y,z NGXF=   140 NGYF=  140 NGZF=  140
   support grid    NGXF=   140 NGYF=  140 NGZF=  140
   ions per type =               4   1
   NGX,Y,Z   is equivalent  to a cutoff of  11.63, 11.43, 11.47 a.u.
   NGXF,Y,Z  is equivalent  to a cutoff of  23.26, 22.86, 22.94 a.u.

 SYSTEM =  unknown system                          
 POSCAR =   H  C                                   

 Startparameter for this run:
   NWRITE =      2    write-flag & timer
   PREC   = a         normal or accurate (medium, high low for compatibility)
   ISTART =      0    job   : 0-new  1-cont  2-samecut
   ICHARG =      2    charge: 1-file 2-atom 10-const
   ISPIN  =      1    spin polarized calculation?
   LNONCOLLINEAR =      F non collinear calculations
   LSORBIT =      F    spin-orbit coupling
   INIWAV =      1    electr: 0-lowe 1-rand  2-diag
   LASPH  =      F    aspherical Exc in radial PAW
   METAGGA=      F    non-selfconsistent MetaGGA calc.

 Electronic Relaxation 1
   ENCUT  =  400.0 eV  29.40 Ry    5.42 a.u.  16.32 16.60 16.55*2*pi/ulx,y,z
   ENINI  =  400.0     initial cutoff
   ENAUG  =  644.9 eV  augmentation charge cutoff
   NELM   =    120;   NELMIN=  4; NELMDL= -5     # of ELM steps 
   EDIFF  = 0.1E-05   stopping-criterion for ELM
   LREAL  =      F    real-space projection
   NLSPLINE    = F    spline interpolate recip. space projectors
   LCOMPAT=      F    compatible to vasp.4.4
   GGA_COMPAT  = T    GGA compatible to vasp.4.4-vasp.4.6
   LMAXPAW     = -100 max onsite density
   LMAXMIX     =    2 max onsite mixed and CHGCAR
   VOSKOWN=      0    Vosko Wilk Nusair interpolation
   ROPT   =    0.00000   0.00000
 Ionic relaxation
   EDIFFG = 0.1E-04   stopping-criterion for IOM
   NSW    =     10    number of steps for IOM
   NBLOCK =      1;   KBLOCK =     10    inner block; outer block 
   IBRION =      0    ionic relax: 0-MD 1-quasi-New 2-CG
   NFREE  =      0    steps in history (QN), initial steepest desc. (CG)
   ISIF   =      2    stress and relaxation
   IWAVPR =     12    prediction:  0-non 1-charg 2-wave 3-comb
   ISYM   =      0    0-nonsym 1-usesym 2-fastsym
   LCORR  =      T    Harris-Foulkes like correction to forces

   POTIM  = 0.5000    time-step for ionic-motion
   TEIN   =    0.0    initial temperature
   TEBEG  =    0.0;   TEEND  =   0.0 temperature during run
   SMASS  =  -3.00    Nose mass-parameter (am)
   estimated Nose-frequenzy (Omega)   =  0.10E-29 period in steps =****** mass=  -0.229E-26a.u.
   SCALEE = 1.0000    scale energy and forces
   NPACO  =    256;   APACO  = 16.0  distance and # of slots for P.C.
   PSTRESS=    0.0 pullay stress

  Mass of Ions in am
   POMASS =   1.00 12.01
  Ionic Valenz
   ZVAL   =   1.00  4.00
  Atomic Wigner-Seitz radii
   RWIGS  =  -1.00 -1.00
  virtual crystal weights 
   VCA    =   1.00  1.00
   NELECT =       8.0000    total number of electrons
   NUPDOWN=      -1.0000    fix difference up-down

 DOS related values:
   EMIN   =  10.00;   EMAX   =-10.00  energy-range for DOS
   EFERMI =   0.00
   ISMEAR =     0;   SIGMA  =   0.20  broadening in eV -4-tet -1-fermi 0-gaus

 Electronic relaxation 2 (details)
   IALGO  =     68    algorithm
   LDIAG  =      T    sub-space diagonalisation (order eigenvalues)
   LSUBROT=      F    optimize rotation matrix (better conditioning)
   TURBO    =      0    0=normal 1=particle mesh
   IRESTART =      0    0=no restart 2=restart with 2 vectors
   NREBOOT  =      0    no. of reboots
   NMIN     =      0    reboot dimension
   EREF     =   0.00    reference energy to select bands
   IMIX   =      4    mixing-type and parameters
     AMIX     =   0.40;   BMIX     =  1.00
     AMIX_MAG =   1.60;   BMIX_MAG =  1.00
     AMIN     =   0.10
     WC   =   100.;   INIMIX=   1;  MIXPRE=   1;  MAXMIX= -45

 Intra band minimization:
   WEIMIN = 0.0010     energy-eigenvalue tresh-hold
   EBREAK =  0.31E-07  absolut break condition
   DEPER  =   0.30     relativ break condition  

   TIME   =   0.40     timestep for ELM

  volume/ion in A,a.u.               =     206.64      1394.46
  Fermi-wavevector in a.u.,A,eV,Ry     =   0.323876  0.612037  1.427192  0.104896
  Thomas-Fermi vector in A             =   1.213510
 
 Write flags
   LWAVE        =      F    write WAVECAR
   LDOWNSAMPLE  =      F    k-point downsampling of WAVECAR
   LCHARG       =      F    write CHGCAR
   LVTOT        =      F    write LOCPOT, total local potential
   LVHAR        =      F    write LOCPOT, Hartree potential only
   LELF         =      F    write electronic localiz. function (ELF)
   LORBIT       =      0    0 simple, 1 ext, 2 COOP (PROOUT), +10 PAW based schemes


 Dipole corrections
   LMONO  =      F    monopole corrections only (constant potential shift)
   LDIPOL =      F    correct potential (dipole corrections)
   IDIPOL =      0    1-x, 2-y, 3-z, 4-all directions 
   EPSILON=  1.0000000 bulk dielectric constant

 Exchange correlation treatment:
   GGA     =    --    GGA type
   LEXCH   =     8    internal setting for exchange type
   VOSKOWN=      0    Vosko Wilk Nusair interpolation
   LHFCALC =     F    Hartree Fock is set to
   LHFONE  =     F    Hartree Fock one center treatment
   AEXX    =    0.0000 exact exchange contribution

 Linear response parameters
   LEPSILON=     F    determine dielectric tensor
   LRPA    =     F    only Hartree local field effects (RPA)
   LNABLA  =     F    use nabla operator in PAW spheres
   LVEL    =     F    velocity operator in full k-point grid
   LINTERFAST=   F  fast interpolation
   KINTER  =     0    interpolate to denser k-point grid
   CSHIFT  =0.1000    complex shift for real part using Kramers Kronig
   OMEGAMAX=  -1.0    maximum frequency
   DEG_THRESHOLD= 0.2000000E-02 threshold for treating states as degnerate
   RTIME   =   -0.100 relaxation time in fs
  (WPLASMAI=    0.000 imaginary part of plasma frequency in eV, 0.658/RTIME)
   DFIELD  = 0.0000000 0.0000000 0.0000000 field for delta impulse in time
 
 Orbital magnetization related:
   ORBITALMAG=     F  switch on orbital magnetization
   LCHIMAG   =     F  perturbation theory with respect to B field
   DQ        =  0.001000  dq finite difference perturbation B field
   LLRAUG    =     F  two centre corrections for induced B field



--------------------------------------------------------------------------------------------------------


 molecular dynamics for ions
   using a microcanonical ensemble
 charge density and potential will be updated during run
 non-spin polarized calculation
 RMM-DIIS sequential band-by-band and
  variant of blocked Davidson during initial phase
 perform sub-space diagonalisation
    before iterative eigenvector-optimisation
 modified Broyden-mixing scheme, WC =      100.0
 initial mixing is a Kerker type mixing with AMIX =  0.4000 and BMIX =      1.0000
 Hartree-type preconditioning will be used
 using additional bands            4
 reciprocal scheme for non local part
 use partial core corrections
 calculate Harris-corrections to forces 
   (improved forces if not selfconsistent)
 use gradient corrections 
 use of overlap-Matrix (Vanderbilt PP)
 Gauss-broadening in eV      SIGMA  =   0.20


--------------------------------------------------------------------------------------------------------


  energy-cutoff  :      400.00
  volume of cell :     1033.18
      direct lattice vectors                 reciprocal lattice vectors
    10.004984995  0.000000000  0.000000000     0.099950175  0.002010963 -0.002051613
    -0.204801407 10.179171611  0.000000000     0.000000000  0.098239821  0.001271985
     0.210881281 -0.131354066 10.144932060     0.000000000  0.000000000  0.098571385

  length of vectors
    10.004984995 10.181231669 10.147973754     0.099991452  0.098248056  0.098571385


 
 k-points in units of 2pi/SCALE and weight: read from INCAR                         
   0.02498754  0.02506270  0.02444794       0.250
  -0.02498754  0.02405721  0.02547375       0.250
   0.02498754 -0.02405721  0.02381195       0.250
  -0.02498754 -0.02506270  0.02483775       0.250
 
 k-points in reciprocal lattice and weights: read from INCAR                         
   0.25000000  0.25000000  0.25000000       0.250
  -0.25000000  0.25000000  0.25000000       0.250
   0.25000000 -0.25000000  0.25000000       0.250
  -0.25000000 -0.25000000  0.25000000       0.250
 
 position of ions in fractional coordinates (direct lattice) 
   0.53789589  0.40681981  0.36031311
   0.39425831  0.48016461  0.43902082
   0.55208150  0.56549849  0.44268197
   0.52734965  0.41645388  0.53915962
   0.50310621  0.46748894  0.44458451
 
 position of ions in cartesian coordinates  (Angst):
   5.37430634  4.09376005  3.65535206
   3.93879132  4.83001079  4.45383635
   5.50110559  5.69815811  4.49097847
   5.30453366  4.16833467  5.46973767
   5.03158224  4.70025215  4.51027967
 


--------------------------------------------------------------------------------------------------------


 k-point  1 :   0.2500 0.2500 0.2500  plane waves:   18759
 k-point  2 :  -0.2500 0.2500 0.2500  plane waves:   18758
 k-point  3 :   0.2500-0.2500 0.2500  plane waves:   18745
 k-point  4 :  -0.2500-0.2500 0.2500  plane waves:   18799

 maximum and minimum number of plane-waves per node :      4716     4662

 maximum number of plane-waves:     18799
 maximum index in each direction: 
   IXMAX=   16   IYMAX=   16   IZMAX=   16
   IXMIN=  -16   IYMIN=  -16   IZMIN=  -16


 parallel 3D FFT for wavefunctions:
    minimum data exchange during FFTs selected (reduces bandwidth)
 parallel 3D FFT for charge:
    minimum data exchange during FFTs selected (reduces bandwidth)


 total amount of memory used by VASP MPI-rank0    55496. kBytes
=======================================================================

   base      :      30000. kBytes
   nonl-proj :       2782. kBytes
   fftplans  :       8578. kBytes
   grid      :      13527. kBytes
   one-center:          6. kBytes
   wavefun   :        603. kBytes
 
     INWAV:  cpu time    0.0000: real time    0.0000
 Broyden mixing: mesh for mixing (old mesh)
   NGX = 33   NGY = 33   NGZ = 33
  (NGX  =140   NGY  =140   NGZ  =140)
  gives a total of  35937 points

 initial charge density was supplied:
 charge density of overlapping atoms calculated
 number of electron       8.0000000 magnetization 
 keeping initial charge density in first step


--------------------------------------------------------------------------------------------------------


 Maximum index for augmentation-charges          177 (set IRDMAX)


--------------------------------------------------------------------------------------------------------


 First call to EWALD:  gamma=   0.175
 Maximum number of real-space cells 3x 3x 3
 Maximum number of reciprocal cells 3x 3x 3

    FEWALD:  cpu time    0.0014: real time    0.0014


--------------------------------------- Iteration      1(   1)  ---------------------------------------


    POTLOK:  cpu time    0.1412: real time    0.1420
    SETDIJ:  cpu time    0.0015: real time    0.0015
     EDDAV:  cpu time    0.2062: real time    0.2062
       DOS:  cpu time    0.0003: real time    0.0003
    --------------------------------------------
      LOOP:  cpu time    0.3492: real time    0.3501

 eigenvalue-minimisations  :    96
 total energy-change (2. order) : 0.1344296E+02  (-0.1930890E+03)
 number of electron       8.0000000 magnetization 
 augmentation part        8.0000000 magnetization 

 Free energy of the ion-electron system (eV)
  ---------------------------------------------------
  alpha Z        PSCENC =         0.23446995
  Ewald energy   TEWEN  =       127.19011055
  -Hartree energ DENC   =      -243.79281900
  -exchange      EXHF   =         0.00000000
  -V(xc)+E(xc)   XCENC  =        21.93970219
  PAW double counting   =       117.05815612     -117.66307307
  entropy T*S    EENTRO =        -0.00000000
  eigenvalues    EBANDS =       -88.56534439
  atomic energy  EATOM  =       197.04175453
  Solvation  Ediel_sol  =         0.00000000
  ---------------------------------------------------
  free energy    TOTEN  =        13.44295688 eV

  energy without entropy =       13.44295688  energy(sigma->0) =       13.44295688


--------------------------------------------------------------------------------------------------------




--------------------------------------- Iteration      1(   2)  ---------------------------------------


     EDDAV:  cpu time    0.1553: real time    0.1553
       DOS:  cpu time    0.0004: real time    0.0004
    --------------------------------------------
      LOOP:  cpu time    0.1557: real time    0.1557

 eigenvalue-minimisations  :    64
 total energy-change (2. order) :-0.3611563E+02  (-0.3611563E+02)
 number of electron       8.0000000 magnetization 
 augmentation part        8.0000000 magnetization 

 Free energy of the ion-electron system (eV)
  ---------------------------------------------------
  alpha Z        PSCENC =         0.23446995
  Ewald energy   TEWEN  =       127.19011055
  -Hartree energ DENC   =      -243.79281900
  -exchange      EXHF   =         0.00000000
  -V(xc)+E(xc)   XCENC  =        21.93970219
  PAW double counting   =       117.05815612     -117.66307307
  entropy T*S    EENTRO =        -0.00000000
  eigenvalues    EBANDS =      -124.68097050
  atomic energy  EATOM  =       197.04175453
  Solvation  Ediel_sol  =         0.00000000
  ---------------------------------------------------
  free energy    TOTEN  =       -22.67266923 eV

  energy without entropy =      -22.67266923  energy(sigma->0) =      -22.67266923


--------------------------------------------------------------------------------------------------------




--------------------------------------- Iteration      1(   3)  ---------------------------------------


     EDDAV:  cpu time    0.1549: real time    0.1550
       DOS:  cpu time    0.0002: real time    0.0002
    --------------------------------------------
      LOOP:  cpu time    0.1551: real time    0.1551

 eigenvalue-minimisations  :    64
 total energy-change (2. order) :-0.4502864E+01  (-0.4502864E+01)
 number of electron       8.0000000 magnetization 
 augmentation part        8.0000000 magnetization 

 Free energy of the ion-electron system (eV)
  ---------------------------------------------------
  alpha Z        PSCENC =         0.23446995
  Ewald energy   TEWEN  =       127.19011055
  -Hartree energ DENC   =      -243.79281900
  -exchange      EXHF   =         0.00000000
  -V(xc)+E(xc)   XCENC  =        21.93970219
  PAW double counting   =       117.05815612     -117.66307307
  entropy T*S    EENTRO =        -0.00000000
  eigenvalues    EBANDS =      -129.18383417
  atomic energy  EATOM  =       197.04175453
  Solvation  Ediel_sol  =         0.00000000
  ---------------------------------------------------
  free energy    TOTEN  =       -27.17553290 eV

  energy without entropy =      -27.17553290  energy(sigma->0) =      -27.17553290


--------------------------------------------------------------------------------------------------------




--------------------------------------- Iteration      1(   4)  ---------------------------------------


     EDDAV:  cpu time    0.2583: real time    0.2583
       DOS:  cpu time    0.0002: real time    0.0002
    --------------------------------------------
      LOOP:  cpu time    0.2584: real time    0.2584

 eigenvalue-minimisations  :   128
 total energy-change (2. order) :-0.1906115E+00  (-0.1906115E+00)
 number of electron       8.0000000 magnetization 
 augmentation part        8.0000000 magnetization 

 Free energy of the ion-electron system (eV)
  ---------------------------------------------------
  alpha Z        PSCENC =         0.23446995
  Ewald energy   TEWEN  =       127.19011055
  -Hartree energ DENC   =      -243.79281900
  -exchange      EXHF   =         0.00000000
  -V(xc)+E(xc)   XCENC  =        21.93970219
  PAW double counting   =       117.05815612     -117.66307307
  entropy T*S    EENTRO =        -0.00000000
  eigenvalues    EBANDS =      -129.37444564
  atomic energy  EATOM  =       197.04175453
  Solvation  Ediel_sol  =         0.00000000
  ---------------------------------------------------
  free energy    TOTEN  =       -27.36614437 eV

  energy without entropy =      -27.36614437  energy(sigma->0) =      -27.36614437


--------------------------------------------------------------------------------------------------------




--------------------------------------- Iteration      1(   5)  ---------------------------------------


     EDDAV:  cpu time    0.2059: real time    0.2059
       DOS:  cpu time    0.0002: real time    0.0002
    CHARGE:  cpu time    0.0200: real time    0.0200
    MIXING:  cpu time    0.0040: real time    0.0040
    --------------------------------------------
      LOOP:  cpu time    0.2301: real time    0.2302

 eigenvalue-minimisations  :    96
 total energy-change (2. order) :-0.6804371E-04  (-0.6804375E-04)
 number of electron       8.0000001 magnetization 
 augmentation part        0.2206842 magnetization 

 Broyden mixing:
  rms(total) = 0.84909E+00    rms(broyden)= 0.84889E+00
  rms(prec ) = 0.12034E+01
  weight for this iteration     100.00

 Free energy of the ion-electron system (eV)
  ---------------------------------------------------
  alpha Z        PSCENC =         0.23446995
  Ewald energy   TEWEN  =       127.19011055
  -Hartree energ DENC   =      -243.79281900
  -exchange      EXHF   =         0.00000000
  -V(xc)+E(xc)   XCENC  =        21.93970219
  PAW double counting   =       117.05815612     -117.66307307
  entropy T*S    EENTRO =        -0.00000000
  eigenvalues    EBANDS =      -129.37451369
  atomic energy  EATOM  =       197.04175453
  Solvation  Ediel_sol  =         0.00000000
  ---------------------------------------------------
  free energy    TOTEN  =       -27.36621242 eV

  energy without entropy =      -27.36621242  energy(sigma->0) =      -27.36621242


--------------------------------------------------------------------------------------------------------




--------------------------------------- Iteration      1(   6)  ---------------------------------------


    POTLOK:  cpu time    0.1371: real time    0.1371
    SETDIJ:  cpu time    0.0015: real time    0.0015
    EDDIAG:  cpu time    0.0391: real time    0.0391
  RMM-DIIS:  cpu time    0.1617: real time    0.1617
    ORTHCH:  cpu time    0.0015: real time    0.0015
       DOS:  cpu time    0.0002: real time    0.0002
    CHARGE:  cpu time    0.0194: real time    0.0194
    MIXING:  cpu time    0.0043: real time    0.0043
    --------------------------------------------
      LOOP:  cpu time    0.3647: real time    0.3647

 eigenvalue-minimisations  :    64
 total energy-change (2. order) : 0.2748736E+01  (-0.5037793E+00)
 number of electron       8.0000001 magnetization 
 augmentation part        0.1945226 magnetization 

 Broyden mixing:
  rms(total) = 0.41974E+00    rms(broyden)= 0.41965E+00
  rms(prec ) = 0.54358E+00
  weight for this iteration     100.00

 eigenvalues of (default mixing * dielectric matrix)
  average eigenvalue GAMMA=   1.2956
  1.2956

 Free energy of the ion-electron system (eV)
  ---------------------------------------------------
  alpha Z        PSCENC =         0.23446995
  Ewald energy   TEWEN  =       127.19011055
  -Hartree energ DENC   =      -263.02325714
  -exchange      EXHF   =         0.00000000
  -V(xc)+E(xc)   XCENC  =        23.10732158
  PAW double counting   =       234.22183516     -234.99472241
  entropy T*S    EENTRO =        -0.00000000
  eigenvalues    EBANDS =      -108.39498874
  atomic energy  EATOM  =       197.04175453
  Solvation  Ediel_sol  =         0.00000000
  ---------------------------------------------------
  free energy    TOTEN  =       -24.61747654 eV

  energy without entropy =      -24.61747654  energy(sigma->0) =      -24.61747654


--------------------------------------------------------------------------------------------------------




--------------------------------------- Iteration      1(   7)  ---------------------------------------


    POTLOK:  cpu time    0.1375: real time    0.1375
    SETDIJ:  cpu time    0.0014: real time    0.0014
    EDDIAG:  cpu time    0.0370: real time    0.0370
  RMM-DIIS:  cpu time    0.1586: real time    0.1586
    ORTHCH:  cpu time    0.0014: real time    0.0014
       DOS:  cpu time    0.0002: real time    0.0002
    CHARGE:  cpu time    0.0183: real time    0.0183
    MIXING:  cpu time    0.0044: real time    0.0044
    --------------------------------------------
      LOOP:  cpu time    0.3587: real time    0.3588

 eigenvalue-minimisations  :    64
 total energy-change (2. order) : 0.4659613E+00  (-0.1088282E+00)
 number of electron       8.0000001 magnetization 
 augmentation part        0.1845556 magnetization 

 Broyden mixing:
  rms(total) = 0.22427E+00    rms(broyden)= 0.22422E+00
  rms(prec ) = 0.27170E+00
  weight for this iteration     100.00

 eigenvalues of (default mixing * dielectric matrix)
  average eigenvalue GAMMA=   1.8383
  1.4409  2.2357

 Free energy of the ion-electron system (eV)
  ---------------------------------------------------
  alpha Z        PSCENC =         0.23446995
  Ewald energy   TEWEN  =       127.19011055
  -Hartree energ DENC   =      -274.20740094
  -exchange      EXHF   =         0.00000000
  -V(xc)+E(xc)   XCENC  =        23.93351973
  PAW double counting   =       353.65916717     -354.46743763
  entropy T*S    EENTRO =        -0.00000000
  eigenvalues    EBANDS =       -97.53569858
  atomic energy  EATOM  =       197.04175453
  Solvation  Ediel_sol  =         0.00000000
  ---------------------------------------------------
  free energy    TOTEN  =       -24.15151522 eV

  energy without entropy =      -24.15151522  energy(sigma->0) =      -24.15151522


--------------------------------------------------------------------------------------------------------




--------------------------------------- Iteration      1(   8)  ---------------------------------------


    POTLOK:  cpu time    0.1377: real time    0.1377
    SETDIJ:  cpu time    0.0014: real time    0.0014
    EDDIAG:  cpu time    0.0367: real time    0.0368
  RMM-DIIS:  cpu time    0.1596: real time    0.1596
    ORTHCH:  cpu time    0.0017: real time    0.0017
       DOS:  cpu time    0.0002: real time    0.0002
    CHARGE:  cpu time    0.0182: real time    0.0182
    MIXING:  cpu time    0.0044: real time    0.0044
    --------------------------------------------
      LOOP:  cpu time    0.3599: real time    0.3599

 eigenvalue-minimisations  :    64
 total energy-change (2. order) : 0.1441706E+00  (-0.1626131E-01)
 number of electron       8.0000001 magnetization 
 augmentation part        0.1832109 magnetization 

 Broyden mixing:
  rms(total) = 0.22843E-01    rms(broyden)= 0.22820E-01
  rms(prec ) = 0.52221E-01
  weight for this iteration     100.00

 eigenvalues of (default mixing * dielectric matrix)
  average eigenvalue GAMMA=   1.5406
  2.2481  0.9823  1.3915

 Free energy of the ion-electron system (eV)
  ---------------------------------------------------
  alpha Z        PSCENC =         0.23446995
  Ewald energy   TEWEN  =       127.19011055
  -Hartree energ DENC   =      -279.60238649
  -exchange      EXHF   =         0.00000000
  -V(xc)+E(xc)   XCENC  =        24.46843835
  PAW double counting   =       457.49944083     -458.27642247
  entropy T*S    EENTRO =        -0.00000000
  eigenvalues    EBANDS =       -92.56274989
  atomic energy  EATOM  =       197.04175453
  Solvation  Ediel_sol  =         0.00000000
  ---------------------------------------------------
  free energy    TOTEN  =       -24.00734465 eV

  energy without entropy =      -24.00734465  energy(sigma->0) =      -24.00734465


--------------------------------------------------------------------------------------------------------




--------------------------------------- Iteration      1(   9)  ---------------------------------------


    POTLOK:  cpu time    0.1374: real time    0.1374
    SETDIJ:  cpu time    0.0014: real time    0.0014
    EDDIAG:  cpu time    0.0367: real time    0.0367
  RMM-DIIS:  cpu time    0.1605: real time    0.1605
    ORTHCH:  cpu time    0.0014: real time    0.0014
       DOS:  cpu time    0.0002: real time    0.0002
    CHARGE:  cpu time    0.0182: real time    0.0182
    MIXING:  cpu time    0.0045: real time    0.0045
    --------------------------------------------
      LOOP:  cpu time    0.3602: real time    0.3602

 eigenvalue-minimisations  :    64
 total energy-change (2. order) : 0.5553493E-02  (-0.1076721E-02)
 number of electron       8.0000001 magnetization 
 augmentation part        0.1826636 magnetization 

 Broyden mixing:
  rms(total) = 0.19246E-01    rms(broyden)= 0.19243E-01
  rms(prec ) = 0.39867E-01
  weight for this iteration     100.00

 eigenvalues of (default mixing * dielectric matrix)
  average eigenvalue GAMMA=   2.0820
  1.0037  1.3593  2.9824  2.9824

 Free energy of the ion-electron system (eV)
  ---------------------------------------------------
  alpha Z        PSCENC =         0.23446995
  Ewald energy   TEWEN  =       127.19011055
  -Hartree energ DENC   =      -280.83419805
  -exchange      EXHF   =         0.00000000
  -V(xc)+E(xc)   XCENC  =        24.53541599
  PAW double counting   =       460.12264244     -460.90237366
  entropy T*S    EENTRO =        -0.00000000
  eigenvalues    EBANDS =       -91.38961291
  atomic energy  EATOM  =       197.04175453
  Solvation  Ediel_sol  =         0.00000000
  ---------------------------------------------------
  free energy    TOTEN  =       -24.00179116 eV

  energy without entropy =      -24.00179116  energy(sigma->0) =      -24.00179116


--------------------------------------------------------------------------------------------------------




--------------------------------------- Iteration      1(  10)  ---------------------------------------


    POTLOK:  cpu time    0.1334: real time    0.1334
    SETDIJ:  cpu time    0.0014: real time    0.0014
    EDDIAG:  cpu time    0.0365: real time    0.0365
  RMM-DIIS:  cpu time    0.1618: real time    0.1618
    ORTHCH:  cpu time    0.0014: real time    0.0014
       DOS:  cpu time    0.0002: real time    0.0002
    CHARGE:  cpu time    0.0181: real time    0.0181
    MIXING:  cpu time    0.0047: real time    0.0047
    --------------------------------------------
      LOOP:  cpu time    0.3575: real time    0.3575

 eigenvalue-minimisations  :    64
 total energy-change (2. order) : 0.6410303E-02  (-0.2427422E-02)
 number of electron       8.0000001 magnetization 
 augmentation part        0.1816399 magnetization 

 Broyden mixing:
  rms(total) = 0.27026E-01    rms(broyden)= 0.27024E-01
  rms(prec ) = 0.34705E-01
  weight for this iteration     100.00

 eigenvalues of (default mixing * dielectric matrix)
  average eigenvalue GAMMA=   1.7884
  3.0760  2.4017  0.9847  1.2398  1.2398

 Free energy of the ion-electron system (eV)
  ---------------------------------------------------
  alpha Z        PSCENC =         0.23446995
  Ewald energy   TEWEN  =       127.19011055
  -Hartree energ DENC   =      -283.00368586
  -exchange      EXHF   =         0.00000000
  -V(xc)+E(xc)   XCENC  =        24.60572249
  PAW double counting   =       445.02982450     -445.81291928
  entropy T*S    EENTRO =        -0.00000000
  eigenvalues    EBANDS =       -89.28065774
  atomic energy  EATOM  =       197.04175453
  Solvation  Ediel_sol  =         0.00000000
  ---------------------------------------------------
  free energy    TOTEN  =       -23.99538086 eV

  energy without entropy =      -23.99538086  energy(sigma->0) =      -23.99538086


--------------------------------------------------------------------------------------------------------




--------------------------------------- Iteration      1(  11)  ---------------------------------------


    POTLOK:  cpu time    0.1329: real time    0.1329
    SETDIJ:  cpu time    0.0014: real time    0.0014
    EDDIAG:  cpu time    0.0363: real time    0.0363
  RMM-DIIS:  cpu time    0.1544: real time    0.1544
    ORTHCH:  cpu time    0.0014: real time    0.0014
       DOS:  cpu time    0.0002: real time    0.0002
    CHARGE:  cpu time    0.0181: real time    0.0181
    MIXING:  cpu time    0.0048: real time    0.0047
    --------------------------------------------
      LOOP:  cpu time    0.3494: real time    0.3494

 eigenvalue-minimisations  :    64
 total energy-change (2. order) :-0.9490975E-03  (-0.9084773E-03)
 number of electron       8.0000001 magnetization 
 augmentation part        0.1820325 magnetization 

 Broyden mixing:
  rms(total) = 0.97579E-02    rms(broyden)= 0.97546E-02
  rms(prec ) = 0.15319E-01
  weight for this iteration     100.00

 eigenvalues of (default mixing * dielectric matrix)
  average eigenvalue GAMMA=   2.2841
  4.9005  3.0800  2.4295  1.2588  1.0178  1.0178

 Free energy of the ion-electron system (eV)
  ---------------------------------------------------
  alpha Z        PSCENC =         0.23446995
  Ewald energy   TEWEN  =       127.19011055
  -Hartree energ DENC   =      -282.89609601
  -exchange      EXHF   =         0.00000000
  -V(xc)+E(xc)   XCENC  =        24.62019153
  PAW double counting   =       453.95198899     -454.72733016
  entropy T*S    EENTRO =        -0.00000000
  eigenvalues    EBANDS =       -89.41141933
  atomic energy  EATOM  =       197.04175453
  Solvation  Ediel_sol  =         0.00000000
  ---------------------------------------------------
  free energy    TOTEN  =       -23.99632996 eV

  energy without entropy =      -23.99632996  energy(sigma->0) =      -23.99632996


--------------------------------------------------------------------------------------------------------




--------------------------------------- Iteration      1(  12)  ---------------------------------------


    POTLOK:  cpu time    0.1263: real time    0.1263
    SETDIJ:  cpu time    0.0014: real time    0.0014
    EDDIAG:  cpu time    0.0363: real time    0.0363
  RMM-DIIS:  cpu time    0.1561: real time    0.1561
    ORTHCH:  cpu time    0.0014: real time    0.0014
       DOS:  cpu time    0.0002: real time    0.0002
    CHARGE:  cpu time    0.0181: real time    0.0181
    MIXING:  cpu time    0.0050: real time    0.0050
    --------------------------------------------
      LOOP:  cpu time    0.3446: real time    0.3446

 eigenvalue-minimisations  :    64
 total energy-change (2. order) :-0.9215616E-02  (-0.2868829E-03)
 number of electron       8.0000001 magnetization 
 augmentation part        0.1822067 magnetization 

 Broyden mixing:
  rms(total) = 0.11843E-01    rms(broyden)= 0.11842E-01
  rms(prec ) = 0.15560E-01
  weight for this iteration     100.00

 eigenvalues of (default mixing * dielectric matrix)
  average eigenvalue GAMMA=   2.0208
  4.8467  2.9480  2.4248  1.2099  1.0139  1.0139  0.6887

 Free energy of the ion-electron system (eV)
  ---------------------------------------------------
  alpha Z        PSCENC =         0.23446995
  Ewald energy   TEWEN  =       127.19011055
  -Hartree energ DENC   =      -283.12022961
  -exchange      EXHF   =         0.00000000
  -V(xc)+E(xc)   XCENC  =        24.61189734
  PAW double counting   =       450.59379152     -451.36863151
  entropy T*S    EENTRO =        -0.00000000
  eigenvalues    EBANDS =       -89.18870833
  atomic energy  EATOM  =       197.04175453
  Solvation  Ediel_sol  =         0.00000000
  ---------------------------------------------------
  free energy    TOTEN  =       -24.00554557 eV

  energy without entropy =      -24.00554557  energy(sigma->0) =      -24.00554557


--------------------------------------------------------------------------------------------------------




--------------------------------------- Iteration      1(  13)  ---------------------------------------


    POTLOK:  cpu time    0.1257: real time    0.1257
    SETDIJ:  cpu time    0.0014: real time    0.0014
    EDDIAG:  cpu time    0.0362: real time    0.0362
  RMM-DIIS:  cpu time    0.1562: real time    0.1562
    ORTHCH:  cpu time    0.0014: real time    0.0014
       DOS:  cpu time    0.0002: real time    0.0002
    CHARGE:  cpu time    0.0179: real time    0.0179
    MIXING:  cpu time    0.0051: real time    0.0051
    --------------------------------------------
      LOOP:  cpu time    0.3441: real time    0.3441

 eigenvalue-minimisations  :    64
 total energy-change (2. order) :-0.5892107E-03  (-0.1039803E-03)
 number of electron       8.0000001 magnetization 
 augmentation part        0.1819592 magnetization 

 Broyden mixing:
  rms(total) = 0.42734E-02    rms(broyden)= 0.42730E-02
  rms(prec ) = 0.60353E-02
  weight for this iteration     100.00

 eigenvalues of (default mixing * dielectric matrix)
  average eigenvalue GAMMA=   2.4597
  6.2336  4.2472  2.4511  2.4511  1.2082  1.2082  0.9934  0.8845

 Free energy of the ion-electron system (eV)
  ---------------------------------------------------
  alpha Z        PSCENC =         0.23446995
  Ewald energy   TEWEN  =       127.19011055
  -Hartree energ DENC   =      -283.29479365
  -exchange      EXHF   =         0.00000000
  -V(xc)+E(xc)   XCENC  =        24.61646349
  PAW double counting   =       450.36004267     -451.13719794
  entropy T*S    EENTRO =        -0.00000000
  eigenvalues    EBANDS =       -89.01698437
  atomic energy  EATOM  =       197.04175453
  Solvation  Ediel_sol  =         0.00000000
  ---------------------------------------------------
  free energy    TOTEN  =       -24.00613478 eV

  energy without entropy =      -24.00613478  energy(sigma->0) =      -24.00613478


--------------------------------------------------------------------------------------------------------




--------------------------------------- Iteration      1(  14)  ---------------------------------------


    POTLOK:  cpu time    0.1239: real time    0.1240
    SETDIJ:  cpu time    0.0014: real time    0.0014
    EDDIAG:  cpu time    0.0360: real time    0.0360
  RMM-DIIS:  cpu time    0.1554: real time    0.1554
    ORTHCH:  cpu time    0.0015: real time    0.0015
       DOS:  cpu time    0.0002: real time    0.0002
    CHARGE:  cpu time    0.0179: real time    0.0179
    MIXING:  cpu time    0.0052: real time    0.0052
    --------------------------------------------
      LOOP:  cpu time    0.3417: real time    0.3418

 eigenvalue-minimisations  :    64
 total energy-change (2. order) :-0.2866881E-02  (-0.1228532E-03)
 number of electron       8.0000001 magnetization 
 augmentation part        0.1818504 magnetization 

 Broyden mixing:
  rms(total) = 0.29472E-02    rms(broyden)= 0.29456E-02
  rms(prec ) = 0.38219E-02
  weight for this iteration     100.00

 eigenvalues of (default mixing * dielectric matrix)
  average eigenvalue GAMMA=   2.3321
  6.5127  4.1244  2.6112  2.3818  1.1502  1.1502  1.1346  0.9621  0.9621

 Free energy of the ion-electron system (eV)
  ---------------------------------------------------
  alpha Z        PSCENC =         0.23446995
  Ewald energy   TEWEN  =       127.19011055
  -Hartree energ DENC   =      -283.28425013
  -exchange      EXHF   =         0.00000000
  -V(xc)+E(xc)   XCENC  =        24.60597352
  PAW double counting   =       449.68656250     -450.46488664
  entropy T*S    EENTRO =        -0.00000000
  eigenvalues    EBANDS =       -89.01873593
  atomic energy  EATOM  =       197.04175453
  Solvation  Ediel_sol  =         0.00000000
  ---------------------------------------------------
  free energy    TOTEN  =       -24.00900166 eV

  energy without entropy =      -24.00900166  energy(sigma->0) =      -24.00900166


--------------------------------------------------------------------------------------------------------




--------------------------------------- Iteration      1(  15)  ---------------------------------------


    POTLOK:  cpu time    0.1241: real time    0.1241
    SETDIJ:  cpu time    0.0014: real time    0.0014
    EDDIAG:  cpu time    0.0360: real time    0.0360
  RMM-DIIS:  cpu time    0.1566: real time    0.1566
    ORTHCH:  cpu time    0.0014: real time    0.0014
       DOS:  cpu time    0.0002: real time    0.0002
    CHARGE:  cpu time    0.0180: real time    0.0180
    MIXING:  cpu time    0.0054: real time    0.0054
    --------------------------------------------
      LOOP:  cpu time    0.3431: real time    0.3431

 eigenvalue-minimisations  :    64
 total energy-change (2. order) :-0.2176071E-03  (-0.4410650E-05)
 number of electron       8.0000001 magnetization 
 augmentation part        0.1817966 magnetization 

 Broyden mixing:
  rms(total) = 0.22696E-02    rms(broyden)= 0.22694E-02
  rms(prec ) = 0.29871E-02
  weight for this iteration     100.00

 eigenvalues of (default mixing * dielectric matrix)
  average eigenvalue GAMMA=   2.5556
  7.6194  4.8508  2.9094  2.6438  2.1996  1.2397  1.2397  0.9963  0.9529  0.9046

 Free energy of the ion-electron system (eV)
  ---------------------------------------------------
  alpha Z        PSCENC =         0.23446995
  Ewald energy   TEWEN  =       127.19011055
  -Hartree energ DENC   =      -283.30116627
  -exchange      EXHF   =         0.00000000
  -V(xc)+E(xc)   XCENC  =        24.60758895
  PAW double counting   =       449.87830036     -450.65626453
  entropy T*S    EENTRO =        -0.00000000
  eigenvalues    EBANDS =       -89.00401280
  atomic energy  EATOM  =       197.04175453
  Solvation  Ediel_sol  =         0.00000000
  ---------------------------------------------------
  free energy    TOTEN  =       -24.00921927 eV

  energy without entropy =      -24.00921927  energy(sigma->0) =      -24.00921927


--------------------------------------------------------------------------------------------------------




--------------------------------------- Iteration      1(  16)  ---------------------------------------


    POTLOK:  cpu time    0.1255: real time    0.1255
    SETDIJ:  cpu time    0.0014: real time    0.0014
    EDDIAG:  cpu time    0.0361: real time    0.0361
  RMM-DIIS:  cpu time    0.1553: real time    0.1553
    ORTHCH:  cpu time    0.0015: real time    0.0015
       DOS:  cpu time    0.0002: real time    0.0002
    CHARGE:  cpu time    0.0178: real time    0.0178
    MIXING:  cpu time    0.0056: real time    0.0056
    --------------------------------------------
      LOOP:  cpu time    0.3434: real time    0.3434

 eigenvalue-minimisations  :    64
 total energy-change (2. order) :-0.2199488E-03  (-0.1934853E-04)
 number of electron       8.0000001 magnetization 
 augmentation part        0.1818750 magnetization 

 Broyden mixing:
  rms(total) = 0.11041E-02    rms(broyden)= 0.11035E-02
  rms(prec ) = 0.14622E-02
  weight for this iteration     100.00

 eigenvalues of (default mixing * dielectric matrix)
  average eigenvalue GAMMA=   2.5102
  7.9145  4.9156  3.5038  2.4515  2.3012  1.2592  1.2592  0.9335  0.9335  1.0702
  1.0702

 Free energy of the ion-electron system (eV)
  ---------------------------------------------------
  alpha Z        PSCENC =         0.23446995
  Ewald energy   TEWEN  =       127.19011055
  -Hartree energ DENC   =      -283.24278174
  -exchange      EXHF   =         0.00000000
  -V(xc)+E(xc)   XCENC  =        24.60579157
  PAW double counting   =       449.94428499     -450.72141293
  entropy T*S    EENTRO =        -0.00000000
  eigenvalues    EBANDS =       -89.06165613
  atomic energy  EATOM  =       197.04175453
  Solvation  Ediel_sol  =         0.00000000
  ---------------------------------------------------
  free energy    TOTEN  =       -24.00943922 eV

  energy without entropy =      -24.00943922  energy(sigma->0) =      -24.00943922


--------------------------------------------------------------------------------------------------------




--------------------------------------- Iteration      1(  17)  ---------------------------------------


    POTLOK:  cpu time    0.1259: real time    0.1259
    SETDIJ:  cpu time    0.0014: real time    0.0014
    EDDIAG:  cpu time    0.0362: real time    0.0362
  RMM-DIIS:  cpu time    0.1558: real time    0.1558
    ORTHCH:  cpu time    0.0014: real time    0.0014
       DOS:  cpu time    0.0002: real time    0.0002
    CHARGE:  cpu time    0.0179: real time    0.0179
    MIXING:  cpu time    0.0056: real time    0.0056
    --------------------------------------------
      LOOP:  cpu time    0.3444: real time    0.3444

 eigenvalue-minimisations  :    64
 total energy-change (2. order) :-0.2616457E-04  (-0.2046664E-05)
 number of electron       8.0000001 magnetization 
 augmentation part        0.1818493 magnetization 

 Broyden mixing:
  rms(total) = 0.16339E-03    rms(broyden)= 0.16337E-03
  rms(prec ) = 0.23136E-03
  weight for this iteration     100.00

 eigenvalues of (default mixing * dielectric matrix)
  average eigenvalue GAMMA=   2.6031
  8.4786  5.3083  3.8526  2.6976  2.4495  1.9268  1.2926  1.2926  1.0441  1.0379
  0.9582  0.8990

 Free energy of the ion-electron system (eV)
  ---------------------------------------------------
  alpha Z        PSCENC =         0.23446995
  Ewald energy   TEWEN  =       127.19011055
  -Hartree energ DENC   =      -283.28347420
  -exchange      EXHF   =         0.00000000
  -V(xc)+E(xc)   XCENC  =        24.60758509
  PAW double counting   =       449.93183996     -450.70931503
  entropy T*S    EENTRO =        -0.00000000
  eigenvalues    EBANDS =       -89.02243623
  atomic energy  EATOM  =       197.04175453
  Solvation  Ediel_sol  =         0.00000000
  ---------------------------------------------------
  free energy    TOTEN  =       -24.00946538 eV

  energy without entropy =      -24.00946538  energy(sigma->0) =      -24.00946538


--------------------------------------------------------------------------------------------------------




--------------------------------------- Iteration      1(  18)  ---------------------------------------


    POTLOK:  cpu time    0.1287: real time    0.1287
    SETDIJ:  cpu time    0.0014: real time    0.0014
    EDDIAG:  cpu time    0.0362: real time    0.0362
  RMM-DIIS:  cpu time    0.1244: real time    0.1244
    ORTHCH:  cpu time    0.0014: real time    0.0014
       DOS:  cpu time    0.0002: real time    0.0002
    CHARGE:  cpu time    0.0179: real time    0.0179
    MIXING:  cpu time    0.0061: real time    0.0061
    --------------------------------------------
      LOOP:  cpu time    0.3162: real time    0.3162

 eigenvalue-minimisations  :    52
 total energy-change (2. order) :-0.1553103E-04  (-0.1975788E-06)
 number of electron       8.0000001 magnetization 
 augmentation part        0.1818422 magnetization 

 Broyden mixing:
  rms(total) = 0.12216E-03    rms(broyden)= 0.12207E-03
  rms(prec ) = 0.17425E-03
  weight for this iteration     100.00

 eigenvalues of (default mixing * dielectric matrix)
  average eigenvalue GAMMA=   2.4831
  8.5208  5.3553  3.8714  2.7345  2.4498  1.9976  1.2961  1.2961  1.0439  1.0439
  0.8984  0.8864  0.8864

 Free energy of the ion-electron system (eV)
  ---------------------------------------------------
  alpha Z        PSCENC =         0.23446995
  Ewald energy   TEWEN  =       127.19011055
  -Hartree energ DENC   =      -283.27815546
  -exchange      EXHF   =         0.00000000
  -V(xc)+E(xc)   XCENC  =        24.60705364
  PAW double counting   =       449.86914881     -450.64664210
  entropy T*S    EENTRO =        -0.00000000
  eigenvalues    EBANDS =       -89.02722083
  atomic energy  EATOM  =       197.04175453
  Solvation  Ediel_sol  =         0.00000000
  ---------------------------------------------------
  free energy    TOTEN  =       -24.00948092 eV

  energy without entropy =      -24.00948092  energy(sigma->0) =      -24.00948092


--------------------------------------------------------------------------------------------------------




--------------------------------------- Iteration      1(  19)  ---------------------------------------


    POTLOK:  cpu time    0.1291: real time    0.1291
    SETDIJ:  cpu time    0.0014: real time    0.0014
    EDDIAG:  cpu time    0.0361: real time    0.0361
  RMM-DIIS:  cpu time    0.1244: real time    0.1244
    ORTHCH:  cpu time    0.0014: real time    0.0014
       DOS:  cpu time    0.0002: real time    0.0002
    CHARGE:  cpu time    0.0180: real time    0.0180
    MIXING:  cpu time    0.0061: real time    0.0061
    --------------------------------------------
      LOOP:  cpu time    0.3167: real time    0.3168

 eigenvalue-minimisations  :    48
 total energy-change (2. order) :-0.1891980E-05  (-0.2544808E-07)
 number of electron       8.0000001 magnetization 
 augmentation part        0.1818429 magnetization 

 Broyden mixing:
  rms(total) = 0.38906E-04    rms(broyden)= 0.38891E-04
  rms(prec ) = 0.55978E-04
  weight for this iteration     100.00

 eigenvalues of (default mixing * dielectric matrix)
  average eigenvalue GAMMA=   2.5357
  8.6100  5.5830  3.8331  3.4676  2.4476  2.4476  1.7309  1.2948  1.2948  1.1042
  0.9852  0.9852  0.8954  0.8206

 Free energy of the ion-electron system (eV)
  ---------------------------------------------------
  alpha Z        PSCENC =         0.23446995
  Ewald energy   TEWEN  =       127.19011055
  -Hartree energ DENC   =      -283.27349740
  -exchange      EXHF   =         0.00000000
  -V(xc)+E(xc)   XCENC  =        24.60679386
  PAW double counting   =       449.85732854     -450.63477731
  entropy T*S    EENTRO =        -0.00000000
  eigenvalues    EBANDS =       -89.03166552
  atomic energy  EATOM  =       197.04175453
  Solvation  Ediel_sol  =         0.00000000
  ---------------------------------------------------
  free energy    TOTEN  =       -24.00948281 eV

  energy without entropy =      -24.00948281  energy(sigma->0) =      -24.00948281


--------------------------------------------------------------------------------------------------------




--------------------------------------- Iteration      1(  20)  ---------------------------------------


    POTLOK:  cpu time    0.1311: real time    0.1311
    SETDIJ:  cpu time    0.0014: real time    0.0014
    EDDIAG:  cpu time    0.0360: real time    0.0360
  RMM-DIIS:  cpu time    0.1247: real time    0.1247
    ORTHCH:  cpu time    0.0015: real time    0.0015
       DOS:  cpu time    0.0002: real time    0.0002
    CHARGE:  cpu time    0.0179: real time    0.0179
    MIXING:  cpu time    0.0063: real time    0.0063
    --------------------------------------------
      LOOP:  cpu time    0.3191: real time    0.3191

 eigenvalue-minimisations  :    48
 total energy-change (2. order) :-0.1793940E-05  (-0.1589122E-07)
 number of electron       8.0000001 magnetization 
 augmentation part        0.1818450 magnetization 

 Broyden mixing:
  rms(total) = 0.32155E-04    rms(broyden)= 0.32147E-04
  rms(prec ) = 0.46785E-04
  weight for this iteration     100.00

 eigenvalues of (default mixing * dielectric matrix)
  average eigenvalue GAMMA=   2.4547
  8.6299  5.5928  3.9983  3.4957  2.4352  2.4352  1.7080  1.3181  1.3181  1.1337
  0.8954  0.9759  0.9759  0.9539  0.9539

 Free energy of the ion-electron system (eV)
  ---------------------------------------------------
  alpha Z        PSCENC =         0.23446995
  Ewald energy   TEWEN  =       127.19011055
  -Hartree energ DENC   =      -283.27139620
  -exchange      EXHF   =         0.00000000
  -V(xc)+E(xc)   XCENC  =        24.60666916
  PAW double counting   =       449.85121159     -450.62864166
  entropy T*S    EENTRO =        -0.00000000
  eigenvalues    EBANDS =       -89.03366251
  atomic energy  EATOM  =       197.04175453
  Solvation  Ediel_sol  =         0.00000000
  ---------------------------------------------------
  free energy    TOTEN  =       -24.00948460 eV

  energy without entropy =      -24.00948460  energy(sigma->0) =      -24.00948460


--------------------------------------------------------------------------------------------------------




--------------------------------------- Iteration      1(  21)  ---------------------------------------


    POTLOK:  cpu time    0.1323: real time    0.1323
    SETDIJ:  cpu time    0.0014: real time    0.0014
    EDDIAG:  cpu time    0.0360: real time    0.0360
  RMM-DIIS:  cpu time    0.1047: real time    0.1047
    ORTHCH:  cpu time    0.0014: real time    0.0014
       DOS:  cpu time    0.0002: real time    0.0002
    --------------------------------------------
      LOOP:  cpu time    0.2760: real time    0.2760

 eigenvalue-minimisations  :    32
 total energy-change (2. order) :-0.4121649E-06  ( 0.0000000E+00)
 number of electron       8.0000001 magnetization 
 augmentation part        0.1818450 magnetization 

 Free energy of the ion-electron system (eV)
  ---------------------------------------------------
  alpha Z        PSCENC =         0.23446995
  Ewald energy   TEWEN  =       127.19011055
  -Hartree energ DENC   =      -283.27377690
  -exchange      EXHF   =         0.00000000
  -V(xc)+E(xc)   XCENC  =        24.60680186
  PAW double counting   =       449.85567860     -450.63312790
  entropy T*S    EENTRO =        -0.00000000
  eigenvalues    EBANDS =       -89.03139570
  atomic energy  EATOM  =       197.04175453
  Solvation  Ediel_sol  =         0.00000000
  ---------------------------------------------------
  free energy    TOTEN  =       -24.00948501 eV

  energy without entropy =      -24.00948501  energy(sigma->0) =      -24.00948501


--------------------------------------------------------------------------------------------------------




 average (electrostatic) potential at core
  the test charge radii are     0.5201  0.6991
  (the norm of the test charge is              1.0000)
       1 -41.4740       2 -41.4693       3 -41.4705       4 -41.2735       5 -58.0425
 
 
 
 E-fermi :  -8.1923     XC(G=0):  -0.6852     alpha+bet : -0.2039


 k-point     1 :       0.2500    0.2500    0.2500
  band No.  band energies     occupation 
      1     -16.7926      2.00000
      2      -9.3350      2.00000
      3      -9.2279      2.00000
      4      -9.1601      2.00000
      5      -0.3345      0.00000
      6       0.5370      0.00000
      7       0.6523      0.00000
      8       0.6781      0.00000

 k-point     2 :      -0.2500    0.2500    0.2500
  band No.  band energies     occupation 
      1     -16.7926      2.00000
      2      -9.3350      2.00000
      3      -9.2280      2.00000
      4      -9.1601      2.00000
      5      -0.3345      0.00000
      6       0.5337      0.00000
      7       0.6466      0.00000
      8       0.6825      0.00000

 k-point     3 :       0.2500   -0.2500    0.2500
  band No.  band energies     occupation 
      1     -16.7926      2.00000
      2      -9.3349      2.00000
      3      -9.2279      2.00000
      4      -9.1601      2.00000
      5      -0.3400      0.00000
      6       0.5435      0.00000
      7       0.6665      0.00000
      8       0.6944      0.00000

 k-point     4 :      -0.2500   -0.2500    0.2500
  band No.  band energies     occupation 
      1     -16.7926      2.00000
      2      -9.3351      2.00000
      3      -9.2281      2.00000
      4      -9.1601      2.00000
      5      -0.3330      0.00000
      6       0.5359      0.00000
      7       0.6487      0.00000
      8       0.6715      0.00000


--------------------------------------------------------------------------------------------------------


 soft charge-density along one line, spin component           1
         0         1         2         3         4         5         6         7         8         9
 total charge-density along one line
 
 pseudopotential strength for first ion, spin component:           1
 -2.341  -4.034  -0.001  -0.001   0.001
 -4.034  -6.864  -0.003  -0.004   0.002
 -0.001  -0.003  -0.338   0.002  -0.001
 -0.001  -0.004   0.002  -0.336  -0.001
  0.001   0.002  -0.001  -0.001  -0.339
 total augmentation occupancy for first ion, spin component:           1
  3.525  -0.636   0.234   0.329  -0.132
 -0.636   0.128  -0.043  -0.061   0.024
  0.234  -0.043   0.022   0.018  -0.007
  0.329  -0.061   0.018   0.034  -0.010
 -0.132   0.024  -0.007  -0.010   0.013


------------------------ aborting loop because EDIFF is reached ----------------------------------------


    CHARGE:  cpu time    0.0177: real time    0.0177
    FORLOC:  cpu time    0.0111: real time    0.0111
    FORNL :  cpu time    0.0176: real time    0.0176
    STRESS:  cpu time    0.1400: real time    0.1400
    FORCOR:  cpu time    0.1305: real time    0.1305
    FORHAR:  cpu time    0.0405: real time    0.0405
    MIXING:  cpu time    0.0065: real time    0.0065
    OFIELD:  cpu time    0.0000: real time    0.0000

  FORCE on cell =-STRESS in cart. coord.  units (eV):
  Direction    XX          YY          ZZ          XY          YZ          ZX
  --------------------------------------------------------------------------------------
  Alpha Z     0.23447     0.23447     0.23447
  Ewald      43.29625    42.97354    40.92028    -1.10896     0.57037     0.48605
  Hartree    95.40546    93.90668    93.96179    -0.57698    -0.24833     0.47351
  E(xc)     -27.07089   -27.05826   -27.06550    -0.00602    -0.00106     0.00385
  Local    -197.55380  -195.49666  -194.15769     1.59444     0.00295    -1.02345
  n-local   -15.62932   -15.59586   -15.54897    -0.01231    -0.03824     0.02043
  augment     0.12091     0.11948     0.12521     0.00037    -0.00300     0.00083
  Kinetic   100.59354    99.94600   100.26818     0.29354     0.06272    -0.18817
  Fock        0.00000     0.00000     0.00000     0.00000     0.00000     0.00000
  -------------------------------------------------------------------------------------
  Total      -0.60337    -0.97063    -1.26223     0.18409     0.34541    -0.22697
  in kB      -0.93566    -1.50518    -1.95737     0.28547     0.53564    -0.35196
  external pressure =       -1.47 kB  Pullay stress =        0.00 kB

  kinetic pressure (ideal gas correction) =      0.00 kB
  total pressure  =     -1.47 kB
  Total+kin.    -0.936      -1.505      -1.957       0.285       0.536      -0.352

 VOLUME and BASIS-vectors are now :
 -----------------------------------------------------------------------------
  energy-cutoff  :      400.00
  volume of cell :     1033.18
      direct lattice vectors                 reciprocal lattice vectors
    10.004984995  0.000000000  0.000000000     0.099950175  0.002010963 -0.002051613
    -0.204801407 10.179171611  0.000000000     0.000000000  0.098239821  0.001271985
     0.210881281 -0.131354066 10.144932060     0.000000000  0.000000000  0.098571385

  length of vectors
    10.004984995 10.181231669 10.147973754     0.099991452  0.098248056  0.098571385


 FORCES acting on ions
    electron-ion (+dipol)            ewald-force                    non-local-force                 convergence-correction
 -----------------------------------------------------------------------------------------------
   -.163E+02 0.288E+02 0.406E+02   0.180E+02 -.316E+02 -.447E+02   -.168E+01 0.299E+01 0.420E+01   -.190E-04 0.203E-04 0.226E-04
   0.520E+02 -.616E+01 0.268E+01   -.572E+02 0.672E+01 -.292E+01   0.538E+01 -.655E+00 0.283E+00   0.389E-04 -.177E-06 0.248E-05
   -.223E+02 -.474E+02 0.920E+00   0.246E+02 0.521E+02 -.102E+01   -.229E+01 -.491E+01 0.892E-01   -.248E-04 -.228E-04 -.119E-05
   -.124E+02 0.241E+02 -.434E+02   0.133E+02 -.260E+02 0.469E+02   -.122E+01 0.238E+01 -.427E+01   -.197E-04 0.200E-04 -.316E-04
   -.113E+01 0.968E+00 -.141E+01   0.127E+01 -.116E+01 0.173E+01   -.183E-02 -.142E+00 0.323E+00   -.533E-04 0.333E-04 -.381E-05
 -----------------------------------------------------------------------------------------------
   -.196E+00 0.338E+00 -.625E+00   -.355E-14 0.711E-14 0.711E-14   0.196E+00 -.338E+00 0.625E+00   -.778E-04 0.506E-04 -.114E-04
 
 
 POSITION                                       TOTAL-FORCE (eV/Angst)
 -----------------------------------------------------------------------------------
      5.37431      4.09376      3.65535        -0.031976      0.159312      0.133436
      3.93879      4.83001      4.45384         0.137653     -0.094752      0.045690
      5.50111      5.69816      4.49098         0.010792     -0.228527     -0.008268
      5.30453      4.16833      5.46974        -0.259289      0.495128     -0.812233
      5.03158      4.70025      4.51028         0.142397     -0.331527      0.641376
 -----------------------------------------------------------------------------------
    total drift:                               -0.000423     -0.000366      0.000002


--------------------------------------------------------------------------------------------------------



  FREE ENERGIE OF THE ION-ELECTRON SYSTEM (eV)
  ---------------------------------------------------
  free  energy   TOTEN  =       -24.00948501 eV

  energy  without entropy=      -24.00948501  energy(sigma->0) =      -24.00948501
 


--------------------------------------------------------------------------------------------------------


    POTLOK:  cpu time    0.1359: real time    0.1359


--------------------------------------------------------------------------------------------------------


           RANDOM_SEED =         172237164                0                0
           RANDOM_SEED =         172237164               30                0
   IONSTEP:  cpu time    0.0023: real time    0.0023

  ENERGY OF THE ELECTRON-ION-THERMOSTAT SYSTEM (eV)
  ---------------------------------------------------
% ion-electron   TOTEN  =       -24.009485  see above
  kinetic energy EKIN   =         0.000348
  kin. lattice  EKIN_LAT=         0.000000  (temperature    0.67 K)
  nose potential ES     =         0.000000
  nose kinetic   EPS    =         0.000000
  ---------------------------------------------------
  total energy   ETOTAL =       -24.009137 eV

  maximum distance moved by ions :      0.23E-03

    WAVPRE:  cpu time    0.0391: real time    0.0391
    FEWALD:  cpu time    0.0003: real time    0.0003
    ORTHCH:  cpu time    0.0083: real time    0.0083
     LOOP+:  cpu time    7.1418: real time    7.1431


--------------------------------------- Iteration      2(   1)  ---------------------------------------


    POTLOK:  cpu time    0.1471: real time    0.1471
    SETDIJ:  cpu time    0.0019: real time    0.0019
     EDDAV:  cpu time    0.1662: real time    0.1662
       DOS:  cpu time    0.0002: real time    0.0002
    CHARGE:  cpu time    0.0175: real time    0.0175
    MIXING:  cpu time    0.0042: real time    0.0042
    --------------------------------------------
      LOOP:  cpu time    0.3370: real time    0.3370

 eigenvalue-minimisations  :    72
 total energy-change (2. order) :-0.2688226E-02  (-0.2989668E-03)
 number of electron       8.0000001 magnetization 
 augmentation part        0.1821648 magnetization 

 Broyden mixing:
  rms(total) = 0.26934E-02    rms(broyden)= 0.26920E-02
  rms(prec ) = 0.34392E-02
  weight for this iteration     100.00

 Free energy of the ion-electron system (eV)
  ---------------------------------------------------
  alpha Z        PSCENC =         0.23446995
  Ewald energy   TEWEN  =       127.39854206
  -Hartree energ DENC   =      -283.39865350
  -exchange      EXHF   =         0.00000000
  -V(xc)+E(xc)   XCENC  =        24.61308925
  PAW double counting   =       449.86003294     -450.63748032
  entropy T*S    EENTRO =        -0.00000000
  eigenvalues    EBANDS =       -89.12392774
  atomic energy  EATOM  =       197.04175453
  Solvation  Ediel_sol  =         0.00000000
  ---------------------------------------------------
  free energy    TOTEN  =       -24.01217283 eV

  energy without entropy =      -24.01217283  energy(sigma->0) =      -24.01217283


--------------------------------------------------------------------------------------------------------




--------------------------------------- Iteration      2(   2)  ---------------------------------------


    POTLOK:  cpu time    0.1395: real time    0.1395
    SETDIJ:  cpu time    0.0014: real time    0.0014
    EDDIAG:  cpu time    0.0362: real time    0.0362
  RMM-DIIS:  cpu time    0.1569: real time    0.1569
    ORTHCH:  cpu time    0.0015: real time    0.0015
       DOS:  cpu time    0.0002: real time    0.0002
    CHARGE:  cpu time    0.0178: real time    0.0178
    MIXING:  cpu time    0.0041: real time    0.0041
    --------------------------------------------
      LOOP:  cpu time    0.3576: real time    0.3576

 eigenvalue-minimisations  :    64
 total energy-change (2. order) : 0.1609843E-04  (-0.6260165E-05)
 number of electron       8.0000001 magnetization 
 augmentation part        0.1821273 magnetization 

 Broyden mixing:
  rms(total) = 0.13238E-02    rms(broyden)= 0.13236E-02
  rms(prec ) = 0.16115E-02
  weight for this iteration     100.00

 eigenvalues of (default mixing * dielectric matrix)
  average eigenvalue GAMMA=   1.7879
  1.7879

 Free energy of the ion-electron system (eV)
  ---------------------------------------------------
  alpha Z        PSCENC =         0.23446995
  Ewald energy   TEWEN  =       127.39854206
  -Hartree energ DENC   =      -283.43921425
  -exchange      EXHF   =         0.00000000
  -V(xc)+E(xc)   XCENC  =        24.61529213
  PAW double counting   =       450.43317793     -451.21108680
  entropy T*S    EENTRO =        -0.00000000
  eigenvalues    EBANDS =       -89.08509228
  atomic energy  EATOM  =       197.04175453
  Solvation  Ediel_sol  =         0.00000000
  ---------------------------------------------------
  free energy    TOTEN  =       -24.01215673 eV

  energy without entropy =      -24.01215673  energy(sigma->0) =      -24.01215673


--------------------------------------------------------------------------------------------------------




--------------------------------------- Iteration      2(   3)  ---------------------------------------


    POTLOK:  cpu time    0.1370: real time    0.1370
    SETDIJ:  cpu time    0.0014: real time    0.0014
    EDDIAG:  cpu time    0.0362: real time    0.0362
  RMM-DIIS:  cpu time    0.1564: real time    0.1564
    ORTHCH:  cpu time    0.0016: real time    0.0016
       DOS:  cpu time    0.0002: real time    0.0002
    CHARGE:  cpu time    0.0178: real time    0.0178
    MIXING:  cpu time    0.0042: real time    0.0042
    --------------------------------------------
      LOOP:  cpu time    0.3548: real time    0.3549

 eigenvalue-minimisations  :    64
 total energy-change (2. order) : 0.8206254E-06  (-0.3295090E-05)
 number of electron       8.0000001 magnetization 
 augmentation part        0.1820827 magnetization 

 Broyden mixing:
  rms(total) = 0.49618E-03    rms(broyden)= 0.49581E-03
  rms(prec ) = 0.60438E-03
  weight for this iteration     100.00

 eigenvalues of (default mixing * dielectric matrix)
  average eigenvalue GAMMA=   1.3360
  1.0088  1.6633

 Free energy of the ion-electron system (eV)
  ---------------------------------------------------
  alpha Z        PSCENC =         0.23446995
  Ewald energy   TEWEN  =       127.39854206
  -Hartree energ DENC   =      -283.46618974
  -exchange      EXHF   =         0.00000000
  -V(xc)+E(xc)   XCENC  =        24.61679144
  PAW double counting   =       450.88754004     -451.66578447
  entropy T*S    EENTRO =        -0.00000000
  eigenvalues    EBANDS =       -89.05927972
  atomic energy  EATOM  =       197.04175453
  Solvation  Ediel_sol  =         0.00000000
  ---------------------------------------------------
  free energy    TOTEN  =       -24.01215591 eV

  energy without entropy =      -24.01215591  energy(sigma->0) =      -24.01215591


--------------------------------------------------------------------------------------------------------




--------------------------------------- Iteration      2(   4)  ---------------------------------------


    POTLOK:  cpu time    0.1367: real time    0.1367
    SETDIJ:  cpu time    0.0014: real time    0.0014
    EDDIAG:  cpu time    0.0361: real time    0.0361
  RMM-DIIS:  cpu time    0.1240: real time    0.1240
    ORTHCH:  cpu time    0.0014: real time    0.0014
       DOS:  cpu time    0.0002: real time    0.0002
    --------------------------------------------
      LOOP:  cpu time    0.2997: real time    0.2997

 eigenvalue-minimisations  :    48
 total energy-change (2. order) : 0.4056245E-06  (-0.8067462E-07)
 number of electron       8.0000001 magnetization 
 augmentation part        0.1820827 magnetization 

 Free energy of the ion-electron system (eV)
  ---------------------------------------------------
  alpha Z        PSCENC =         0.23446995
  Ewald energy   TEWEN  =       127.39854206
  -Hartree energ DENC   =      -283.45944217
  -exchange      EXHF   =         0.00000000
  -V(xc)+E(xc)   XCENC  =        24.61651078
  PAW double counting   =       450.92170787     -451.69986259
  entropy T*S    EENTRO =        -0.00000000
  eigenvalues    EBANDS =       -89.06583593
  atomic energy  EATOM  =       197.04175453
  Solvation  Ediel_sol  =         0.00000000
  ---------------------------------------------------
  free energy    TOTEN  =       -24.01215550 eV

  energy without entropy =      -24.01215550  energy(sigma->0) =      -24.01215550


--------------------------------------------------------------------------------------------------------




 average (electrostatic) potential at core
  the test charge radii are     0.5201  0.6991
  (the norm of the test charge is              1.0000)
       1 -41.4760       2 -41.4706       3 -41.4726       4 -41.2890       5 -58.0363
 
 
 
 E-fermi :  -8.2005     XC(G=0):  -0.7004     alpha+bet : -0.2039


 k-point     1 :       0.2500    0.2500    0.2500
  band No.  band energies     occupation 
      1     -16.7992      2.00000
      2      -9.3352      2.00000
      3      -9.2300      2.00000
      4      -9.1684      2.00000
      5      -0.3380      0.00000
      6       0.5252      0.00000
      7       0.6423      0.00000
      8       0.6676      0.00000

 k-point     2 :      -0.2500    0.2500    0.2500
  band No.  band energies     occupation 
      1     -16.7992      2.00000
      2      -9.3352      2.00000
      3      -9.2301      2.00000
      4      -9.1684      2.00000
      5      -0.3380      0.00000
      6       0.5217      0.00000
      7       0.6365      0.00000
      8       0.6721      0.00000

 k-point     3 :       0.2500   -0.2500    0.2500
  band No.  band energies     occupation 
      1     -16.7991      2.00000
      2      -9.3351      2.00000
      3      -9.2300      2.00000
      4      -9.1684      2.00000
      5      -0.3436      0.00000
      6       0.5318      0.00000
      7       0.6564      0.00000
      8       0.6846      0.00000

 k-point     4 :      -0.2500   -0.2500    0.2500
  band No.  band energies     occupation 
      1     -16.7992      2.00000
      2      -9.3353      2.00000
      3      -9.2302      2.00000
      4      -9.1685      2.00000
      5      -0.3364      0.00000
      6       0.5227      0.00000
      7       0.6389      0.00000
      8       0.6618      0.00000


--------------------------------------------------------------------------------------------------------


 soft charge-density along one line, spin component           1
         0         1         2         3         4         5         6         7         8         9
 total charge-density along one line
 
 pseudopotential strength for first ion, spin component:           1
 -2.341  -4.034  -0.001  -0.001   0.001
 -4.034  -6.865  -0.003  -0.004   0.002
 -0.001  -0.003  -0.338   0.002  -0.001
 -0.001  -0.004   0.002  -0.336  -0.001
  0.001   0.002  -0.001  -0.001  -0.339
 total augmentation occupancy for first ion, spin component:           1
  3.526  -0.636   0.234   0.329  -0.132
 -0.636   0.129  -0.043  -0.061   0.025
  0.234  -0.043   0.022   0.018  -0.007
  0.329  -0.061   0.018   0.034  -0.010
 -0.132   0.025  -0.007  -0.010   0.013


------------------------ aborting loop because EDIFF is reached ----------------------------------------


    CHARGE:  cpu time    0.0176: real time    0.0176
    FORLOC:  cpu time    0.0110: real time    0.0110
    FORNL :  cpu time    0.0176: real time    0.0176
    STRESS:  cpu time    0.1409: real time    0.1410
    FORCOR:  cpu time    0.1319: real time    0.1319
    FORHAR:  cpu time    0.0430: real time    0.0430
    MIXING:  cpu time    0.0055: real time    0.0055
    OFIELD:  cpu time    0.0000: real time    0.0000

  FORCE on cell =-STRESS in cart. coord.  units (eV):
  Direction    XX          YY          ZZ          XY          YZ          ZX
  --------------------------------------------------------------------------------------
  Alpha Z     0.23447     0.23447     0.23447
  Ewald      43.34974    43.00990    41.03886    -1.10038     0.52673     0.49738
  Hartree    95.47797    93.96183    94.01382    -0.56911    -0.24028     0.46633
  E(xc)     -27.08109   -27.06878   -27.07602    -0.00586    -0.00091     0.00371
  Local    -197.68310  -195.58622  -194.29649     1.57585     0.01807    -1.01895
  n-local   -15.64839   -15.61676   -15.57349    -0.01152    -0.03536     0.01897
  augment     0.12065     0.11916     0.12463     0.00040    -0.00281     0.00074
  Kinetic   100.64227   100.01015   100.33424     0.28601     0.05498    -0.18136
  Fock        0.00000     0.00000     0.00000     0.00000     0.00000     0.00000
  -------------------------------------------------------------------------------------
  Total      -0.58747    -0.93625    -1.19998     0.17540     0.32041    -0.21319
  in kB      -0.91100    -1.45185    -1.86083     0.27199     0.49687    -0.33060
  external pressure =       -1.41 kB  Pullay stress =        0.00 kB

  kinetic pressure (ideal gas correction) =      0.00 kB
  total pressure  =     -1.41 kB
  Total+kin.    -0.911      -1.451      -1.858       0.271       0.495      -0.330

 VOLUME and BASIS-vectors are now :
 -----------------------------------------------------------------------------
  energy-cutoff  :      400.00
[...]

  ENERGY OF THE ELECTRON-ION-THERMOSTAT SYSTEM (eV)
  ---------------------------------------------------
% ion-electron   TOTEN  =       -24.019190  see above
  kinetic energy EKIN   =         0.009866
  kin. lattice  EKIN_LAT=         0.000000  (temperature   19.08 K)
  nose potential ES     =         0.000000
  nose kinetic   EPS    =         0.000000
  ---------------------------------------------------
  total energy   ETOTAL =       -24.009324 eV

  maximum distance moved by ions :      0.48E-03

    WAVPRE:  cpu time    0.0437: real time    0.0437
    FEWALD:  cpu time    0.0003: real time    0.0003
    ORTHCH:  cpu time    0.0080: real time    0.0080
 Prediction of Wavefunctions ALPHA= 2.229 BETA=-1.268
     LOOP+:  cpu time    1.8332: real time    1.8333


--------------------------------------- Iteration     10(   1)  ---------------------------------------


    POTLOK:  cpu time    0.1323: real time    0.1323
    SETDIJ:  cpu time    0.0014: real time    0.0014
     EDDAV:  cpu time    0.1532: real time    0.1533
       DOS:  cpu time    0.0002: real time    0.0002
    CHARGE:  cpu time    0.0173: real time    0.0173
    MIXING:  cpu time    0.0040: real time    0.0040
    --------------------------------------------
      LOOP:  cpu time    0.3085: real time    0.3085

 eigenvalue-minimisations  :    64
 total energy-change (2. order) : 0.5060964E-02  (-0.3567490E-04)
 number of electron       8.0000001 magnetization 
 augmentation part        0.1882767 magnetization 

 Broyden mixing:
  rms(total) = 0.27105E-03    rms(broyden)= 0.27028E-03
  rms(prec ) = 0.31948E-03
  weight for this iteration     100.00

 Free energy of the ion-electron system (eV)
  ---------------------------------------------------
  alpha Z        PSCENC =         0.23446995
  Ewald energy   TEWEN  =       132.62006058
  -Hartree energ DENC   =      -288.05211411
  -exchange      EXHF   =         0.00000000
  -V(xc)+E(xc)   XCENC  =        24.85929974
  PAW double counting   =       482.52000723     -483.31655955
  entropy T*S    EENTRO =        -0.00000000
  eigenvalues    EBANDS =       -89.92104655
  atomic energy  EATOM  =       197.04175453
  Solvation  Ediel_sol  =         0.00000000
  ---------------------------------------------------
  free energy    TOTEN  =       -24.01412819 eV

  energy without entropy =      -24.01412819  energy(sigma->0) =      -24.01412819


--------------------------------------------------------------------------------------------------------




--------------------------------------- Iteration     10(   2)  ---------------------------------------


    POTLOK:  cpu time    0.1309: real time    0.1309
    SETDIJ:  cpu time    0.0014: real time    0.0014
    EDDIAG:  cpu time    0.0360: real time    0.0360
  RMM-DIIS:  cpu time    0.1497: real time    0.1497
    ORTHCH:  cpu time    0.0014: real time    0.0014
       DOS:  cpu time    0.0002: real time    0.0002
    CHARGE:  cpu time    0.0177: real time    0.0178
    MIXING:  cpu time    0.0041: real time    0.0041
    --------------------------------------------
      LOOP:  cpu time    0.3415: real time    0.3415

 eigenvalue-minimisations  :    56
 total energy-change (2. order) :-0.1658073E-05  (-0.1005223E-05)
 number of electron       8.0000001 magnetization 
 augmentation part        0.1882840 magnetization 

 Broyden mixing:
  rms(total) = 0.18552E-03    rms(broyden)= 0.18501E-03
  rms(prec ) = 0.20796E-03
  weight for this iteration     100.00

 eigenvalues of (default mixing * dielectric matrix)
  average eigenvalue GAMMA=   0.7008
  0.7008

 Free energy of the ion-electron system (eV)
  ---------------------------------------------------
  alpha Z        PSCENC =         0.23446995
  Ewald energy   TEWEN  =       132.62006058
  -Hartree energ DENC   =      -288.04923674
  -exchange      EXHF   =         0.00000000
  -V(xc)+E(xc)   XCENC  =        24.85914695
  PAW double counting   =       482.52213003     -483.31862542
  entropy T*S    EENTRO =        -0.00000000
  eigenvalues    EBANDS =       -89.92382972
  atomic energy  EATOM  =       197.04175453
  Solvation  Ediel_sol  =         0.00000000
  ---------------------------------------------------
  free energy    TOTEN  =       -24.01412984 eV

  energy without entropy =      -24.01412984  energy(sigma->0) =      -24.01412984


--------------------------------------------------------------------------------------------------------




--------------------------------------- Iteration     10(   3)  ---------------------------------------


    POTLOK:  cpu time    0.1317: real time    0.1317
    SETDIJ:  cpu time    0.0014: real time    0.0014
    EDDIAG:  cpu time    0.0359: real time    0.0359
  RMM-DIIS:  cpu time    0.1238: real time    0.1238
    ORTHCH:  cpu time    0.0014: real time    0.0014
       DOS:  cpu time    0.0002: real time    0.0002
    CHARGE:  cpu time    0.0178: real time    0.0178
    MIXING:  cpu time    0.0043: real time    0.0043
    --------------------------------------------
      LOOP:  cpu time    0.3165: real time    0.3165

 eigenvalue-minimisations  :    48
 total energy-change (2. order) :-0.4726838E-06  (-0.2447348E-07)
 number of electron       8.0000001 magnetization 
 augmentation part        0.1882855 magnetization 

 Broyden mixing:
  rms(total) = 0.13520E-03    rms(broyden)= 0.13515E-03
  rms(prec ) = 0.14840E-03
  weight for this iteration     100.00

 eigenvalues of (default mixing * dielectric matrix)
  average eigenvalue GAMMA=   1.4613
  1.4613  1.4613

 Free energy of the ion-electron system (eV)
  ---------------------------------------------------
  alpha Z        PSCENC =         0.23446995
  Ewald energy   TEWEN  =       132.62006058
  -Hartree energ DENC   =      -288.04856037
  -exchange      EXHF   =         0.00000000
  -V(xc)+E(xc)   XCENC  =        24.85912717
  PAW double counting   =       482.49827285     -483.29475443
  entropy T*S    EENTRO =        -0.00000000
  eigenvalues    EBANDS =       -89.92450059
  atomic energy  EATOM  =       197.04175453
  Solvation  Ediel_sol  =         0.00000000
  ---------------------------------------------------
  free energy    TOTEN  =       -24.01413032 eV

  energy without entropy =      -24.01413032  energy(sigma->0) =      -24.01413032


--------------------------------------------------------------------------------------------------------




--------------------------------------- Iteration     10(   4)  ---------------------------------------


    POTLOK:  cpu time    0.1322: real time    0.1322
    SETDIJ:  cpu time    0.0015: real time    0.0015
    EDDIAG:  cpu time    0.0360: real time    0.0360
  RMM-DIIS:  cpu time    0.1236: real time    0.1236
    ORTHCH:  cpu time    0.0015: real time    0.0015
       DOS:  cpu time    0.0002: real time    0.0002
    CHARGE:  cpu time    0.0177: real time    0.0177
    MIXING:  cpu time    0.0045: real time    0.0045
    --------------------------------------------
      LOOP:  cpu time    0.3172: real time    0.3172

 eigenvalue-minimisations  :    48
 total energy-change (2. order) :-0.1054204E-05  (-0.1309448E-07)
 number of electron       8.0000001 magnetization 
 augmentation part        0.1882873 magnetization 

 Broyden mixing:
  rms(total) = 0.42302E-04    rms(broyden)= 0.42272E-04
  rms(prec ) = 0.48328E-04
  weight for this iteration     100.00

 eigenvalues of (default mixing * dielectric matrix)
  average eigenvalue GAMMA=   1.6173
  0.9863  1.9327  1.9327

 Free energy of the ion-electron system (eV)
  ---------------------------------------------------
  alpha Z        PSCENC =         0.23446995
  Ewald energy   TEWEN  =       132.62006058
  -Hartree energ DENC   =      -288.04830578
  -exchange      EXHF   =         0.00000000
  -V(xc)+E(xc)   XCENC  =        24.85913840
  PAW double counting   =       482.44943919     -483.24590933
  entropy T*S    EENTRO =        -0.00000000
  eigenvalues    EBANDS =       -89.92477891
  atomic energy  EATOM  =       197.04175453
  Solvation  Ediel_sol  =         0.00000000
  ---------------------------------------------------
  free energy    TOTEN  =       -24.01413137 eV

  energy without entropy =      -24.01413137  energy(sigma->0) =      -24.01413137


--------------------------------------------------------------------------------------------------------




--------------------------------------- Iteration     10(   5)  ---------------------------------------


    POTLOK:  cpu time    0.1329: real time    0.1329
    SETDIJ:  cpu time    0.0014: real time    0.0014
    EDDIAG:  cpu time    0.0358: real time    0.0358
  RMM-DIIS:  cpu time    0.1178: real time    0.1178
    ORTHCH:  cpu time    0.0015: real time    0.0015
       DOS:  cpu time    0.0002: real time    0.0002
    --------------------------------------------
      LOOP:  cpu time    0.2896: real time    0.2896

 eigenvalue-minimisations  :    36
 total energy-change (2. order) :-0.5335910E-06  (-0.7222010E-09)
 number of electron       8.0000001 magnetization 
 augmentation part        0.1882873 magnetization 

 Free energy of the ion-electron system (eV)
  ---------------------------------------------------
  alpha Z        PSCENC =         0.23446995
  Ewald energy   TEWEN  =       132.62006058
  -Hartree energ DENC   =      -288.04892410
  -exchange      EXHF   =         0.00000000
  -V(xc)+E(xc)   XCENC  =        24.85917355
  PAW double counting   =       482.43238276     -483.22885721
  entropy T*S    EENTRO =        -0.00000000
  eigenvalues    EBANDS =       -89.92419196
  atomic energy  EATOM  =       197.04175453
  Solvation  Ediel_sol  =         0.00000000
  ---------------------------------------------------
  free energy    TOTEN  =       -24.01413191 eV

  energy without entropy =      -24.01413191  energy(sigma->0) =      -24.01413191


--------------------------------------------------------------------------------------------------------




 average (electrostatic) potential at core
  the test charge radii are     0.5201  0.6991
  (the norm of the test charge is              1.0000)
       1 -41.5198       2 -41.5030       3 -41.5193       4 -41.7229       5 -57.9009
 
 
 
 E-fermi :  -8.3519     XC(G=0):  -0.6767     alpha+bet : -0.2039


 k-point     1 :       0.2500    0.2500    0.2500
  band No.  band energies     occupation 
      1     -16.9682      2.00000
      2      -9.3980      2.00000
      3      -9.3152      2.00000
      4      -9.2806      2.00000
      5      -0.3028      0.00000
      6       0.5510      0.00000
      7       0.6641      0.00000
      8       0.6804      0.00000

 k-point     2 :      -0.2500    0.2500    0.2500
  band No.  band energies     occupation 
      1     -16.9682      2.00000
      2      -9.3980      2.00000
      3      -9.3153      2.00000
      4      -9.2807      2.00000
      5      -0.3027      0.00000
      6       0.5485      0.00000
      7       0.6565      0.00000
      8       0.6851      0.00000

 k-point     3 :       0.2500   -0.2500    0.2500
  band No.  band energies     occupation 
      1     -16.9681      2.00000
      2      -9.3979      2.00000
      3      -9.3152      2.00000
      4      -9.2806      2.00000
      5      -0.3096      0.00000
      6       0.5662      0.00000
      7       0.6746      0.00000
      8       0.6974      0.00000

 k-point     4 :      -0.2500   -0.2500    0.2500
  band No.  band energies     occupation 
      1     -16.9682      2.00000
      2      -9.3980      2.00000
      3      -9.3154      2.00000
      4      -9.2808      2.00000
      5      -0.3015      0.00000
      6       0.5498      0.00000
      7       0.6593      0.00000
      8       0.6764      0.00000


--------------------------------------------------------------------------------------------------------


 soft charge-density along one line, spin component           1
         0         1         2         3         4         5         6         7         8         9
 total charge-density along one line
 
 pseudopotential strength for first ion, spin component:           1
 -2.341  -4.034  -0.001  -0.001   0.001
 -4.034  -6.865  -0.003  -0.004   0.002
 -0.001  -0.003  -0.337   0.002  -0.001
 -0.001  -0.004   0.002  -0.336  -0.001
  0.001   0.002  -0.001  -0.001  -0.338
 total augmentation occupancy for first ion, spin component:           1
  3.563  -0.641   0.237   0.339  -0.136
 -0.641   0.129  -0.044  -0.063   0.025
  0.237  -0.044   0.022   0.019  -0.008
  0.339  -0.063   0.019   0.036  -0.011
 -0.136   0.025  -0.008  -0.011   0.014


------------------------ aborting loop because EDIFF is reached ----------------------------------------


    CHARGE:  cpu time    0.0175: real time    0.0175
    FORLOC:  cpu time    0.0111: real time    0.0111
    FORNL :  cpu time    0.0175: real time    0.0175
    STRESS:  cpu time    0.1404: real time    0.1404
    FORCOR:  cpu time    0.1329: real time    0.1329
    FORHAR:  cpu time    0.0427: real time    0.0427
    MIXING:  cpu time    0.0050: real time    0.0050
    OFIELD:  cpu time    0.0000: real time    0.0000

  FORCE on cell =-STRESS in cart. coord.  units (eV):
  Direction    XX          YY          ZZ          XY          YZ          ZX
  --------------------------------------------------------------------------------------
  Alpha Z     0.23447     0.23447     0.23447
  Ewald      44.90529    43.54407    44.17066    -0.61322    -0.61929     0.62917
  Hartree    97.37114    95.27896    95.39929    -0.29693    -0.05335     0.24435
  E(xc)     -27.33735   -27.33540   -27.34034    -0.00052     0.00260    -0.00060
  Local    -201.16433  -197.43954  -197.89425     0.79962     0.40185    -0.71367
  n-local   -16.13729   -16.15280   -16.19956     0.00945     0.03722    -0.01866
  augment     0.11345     0.11061     0.10716     0.00111     0.00321    -0.00177
  Kinetic   101.88988   101.78734   102.03762     0.02219    -0.13616     0.03521
  Fock        0.00000     0.00000     0.00000     0.00000     0.00000     0.00000
  -------------------------------------------------------------------------------------
  Total      -0.12473     0.02771     0.51504    -0.07830    -0.36392     0.17403
  in kB      -0.19342     0.04296     0.79868    -0.12142    -0.56434     0.26987
  external pressure =        0.22 kB  Pullay stress =        0.00 kB

  kinetic pressure (ideal gas correction) =      0.01 kB
  total pressure  =      0.22 kB
  Total+kin.    -0.191       0.053       0.809      -0.126      -0.571       0.274

 VOLUME and BASIS-vectors are now :
 -----------------------------------------------------------------------------
  energy-cutoff  :      400.00
  volume of cell :     1033.18
      direct lattice vectors                 reciprocal lattice vectors
    10.004984995  0.000000000  0.000000000     0.099950175  0.002010963 -0.002051613
    -0.204801407 10.179171611  0.000000000     0.000000000  0.098239821  0.001271985
     0.210881281 -0.131354066 10.144932060     0.000000000  0.000000000  0.098571385

  length of vectors
    10.004984995 10.181231669 10.147973754     0.099991452  0.098248056  0.098571385


 FORCES acting on ions
    electron-ion (+dipol)            ewald-force                    non-local-force                 convergence-correction
 -----------------------------------------------------------------------------------------------
   -.166E+02 0.289E+02 0.415E+02   0.184E+02 -.320E+02 -.460E+02   -.174E+01 0.302E+01 0.433E+01   0.186E-04 -.234E-04 -.167E-07
   0.528E+02 -.600E+01 0.273E+01   -.584E+02 0.663E+01 -.303E+01   0.549E+01 -.628E+00 0.285E+00   -.132E-04 -.123E-04 0.176E-04
   -.231E+02 -.480E+02 0.117E+01   0.256E+02 0.532E+02 -.131E+01   -.240E+01 -.502E+01 0.120E+00   0.240E-04 0.943E-05 0.159E-04
   -.130E+02 0.254E+02 -.462E+02   0.147E+02 -.287E+02 0.521E+02   -.142E+01 0.278E+01 -.505E+01   0.938E-05 -.123E-04 0.234E-04
   0.233E+00 -.707E+00 0.140E+01   -.349E+00 0.912E+00 -.178E+01   -.148E+00 0.179E+00 -.301E+00   0.616E-04 -.651E-04 0.965E-04
 -----------------------------------------------------------------------------------------------
   0.217E+00 -.340E+00 0.613E+00   -.527E-14 0.000E+00 0.000E+00   -.217E+00 0.340E+00 -.612E+00   0.100E-03 -.104E-03 0.153E-03
 
 
 POSITION                                       TOTAL-FORCE (eV/Angst)
 -----------------------------------------------------------------------------------
      5.37312      4.10553      3.66262         0.057622     -0.069360     -0.147036
      3.94709      4.82193      4.45739        -0.129842      0.004791     -0.013947
      5.50473      5.68256      4.48959         0.093455      0.146747     -0.022819
      5.28839      4.19912      5.42186         0.242379     -0.466679      0.864369
      5.03203      4.69868      4.51348        -0.263950      0.384576     -0.680172
 -----------------------------------------------------------------------------------
    total drift:                               -0.000336      0.000076      0.000396


--------------------------------------------------------------------------------------------------------



  FREE ENERGIE OF THE ION-ELECTRON SYSTEM (eV)
  ---------------------------------------------------
  free  energy   TOTEN  =       -24.01413191 eV

  energy  without entropy=      -24.01413191  energy(sigma->0) =      -24.01413191
 
 d Force =-0.5062556E-02[-0.565E-02,-0.448E-02]  d Energy =-0.5058233E-02-0.432E-05
 d Force =-0.4974308E+00[-0.499E+00,-0.496E+00]  d Ewald  =-0.4974278E+00-0.301E-05


--------------------------------------------------------------------------------------------------------


    POTLOK:  cpu time    0.1359: real time    0.1359


--------------------------------------------------------------------------------------------------------


           RANDOM_SEED =         172237164               30                0
   IONSTEP:  cpu time    0.0001: real time    0.0001

  ENERGY OF THE ELECTRON-ION-THERMOSTAT SYSTEM (eV)
  ---------------------------------------------------
% ion-electron   TOTEN  =       -24.014132  see above
  kinetic energy EKIN   =         0.004924
  kin. lattice  EKIN_LAT=         0.000000  (temperature    9.52 K)
  nose potential ES     =         0.000000
  nose kinetic   EPS    =         0.000000
  ---------------------------------------------------
  total energy   ETOTAL =       -24.009208 eV

  maximum distance moved by ions :      0.25E-03


 mean value of Nose-termostat <S>:     1.000 mean value of <T> :    20.900
 mean temperature <T/S>/<1/S>  :    20.900

    WAVPRE:  cpu time    0.0471: real time    0.0471
    FEWALD:  cpu time    0.0003: real time    0.0003
    ORTHCH:  cpu time    0.0080: real time    0.0080
 Prediction of Wavefunctions ALPHA= 2.138 BETA=-1.166
    POTLOK:  cpu time    0.1325: real time    0.1325
    EDDIAG:  cpu time    0.0365: real time    0.0365
     LOOP+:  cpu time    2.3049: real time    2.3050
    4ORBIT:  cpu time    0.0000: real time    0.0000

 total amount of memory used by VASP MPI-rank0    56702. kBytes
=======================================================================

   base      :      30000. kBytes
   nonl-proj :       2782. kBytes
   fftplans  :       8578. kBytes
   grid      :      13527. kBytes
   one-center:          6. kBytes
   wavefun   :       1809. kBytes
 
  
  
 General timing and accounting informations for this job:
 ========================================================
  
                  Total CPU time used (sec):       27.466
                            User time (sec):       25.994
                          System time (sec):        1.472
                         Elapsed time (sec):       27.712
  
                   Maximum memory used (kb):      177008.
                   Average memory used (kb):           0.
  
                          Minor page faults:       269933
                          Major page faults:            0
                 Voluntary context switches:           82
