 vasp.5.4.4.18Apr17-6-g9f103f2a35 (build Jul 09 2021 13:05:15) complex          
  
 executed on             LinuxIFC date 2021.11.04  19:04:05
 running on   16 total cores
 distrk:  each k-point on   16 cores,    1 groups
 distr:  one band on NCORES_PER_BAND=   4 cores,    4 groups


--------------------------------------------------------------------------------------------------------


 INCAR:
 POTCAR:    PAW_PBE H 15Jun2001                   
 POTCAR:    PAW_PBE C 08Apr2002                   
 POTCAR:    PAW_PBE H 15Jun2001                   
   VRHFIN =H: ultrasoft test                                                    
   LEXCH  = PE                                                                  
   EATOM  =    12.4884 eV,    0.9179 Ry                                         
                                                                                
   TITEL  = PAW_PBE H 15Jun2001                                                 
   LULTRA =        F    use ultrasoft PP ?                                      
   IUNSCR =        0    unscreen: 0-lin 1-nonlin 2-no                           
   RPACOR =    0.000    partial core radius                                     
   POMASS =    1.000; ZVAL   =    1.000    mass and valenz                      
   RCORE  =    1.100    outmost cutoff radius                                   
   RWIGS  =    0.700; RWIGS  =    0.370    wigner-seitz radius (au A)           
   ENMAX  =  250.000; ENMIN  =  200.000 eV                                      
   RCLOC  =    0.701    cutoff for local pot                                    
   LCOR   =        T    correct aug charges                                     
   LPAW   =        T    paw PP                                                  
   EAUG   =  400.000                                                            
   RMAX   =    1.123    core radius for proj-oper                               
   RAUG   =    1.200    factor for augmentation sphere                          
   RDEP   =    1.112    radius for radial grids                                 
   RDEPT  =    0.926    core radius for aug-charge                              
                                                                                
   Atomic configuration                                                         
    2 entries                                                                   
     n  l   j            E        occ.                                          
     1  0  0.50        -6.4927   1.0000                                         
     2  1  0.50        -3.4015   0.0000                                         
   Description                                                                  
     l       E           TYP  RCUT    TYP  RCUT                                 
     0     -6.4927494     23  1.100                                             
     0      6.8029130     23  1.100                                             
     1     -4.0817478     23  1.100                                             
  local pseudopotential read in
  atomic valenz-charges read in
  non local Contribution for L=           0  read in
    real space projection operators read in
  non local Contribution for L=           0  read in
    real space projection operators read in
  non local Contribution for L=           1  read in
    real space projection operators read in
    PAW grid and wavefunctions read in
 
   number of l-projection  operators is LMAX  =           3
   number of lm-projection operators is LMMAX =           5
 
 POTCAR:    PAW_PBE C 08Apr2002                   
   VRHFIN =C: s2p2                                                              
   LEXCH  = PE                                                                  
   EATOM  =   147.1560 eV,   10.8157 Ry                                         
                                                                                
   TITEL  = PAW_PBE C 08Apr2002                                                 
   LULTRA =        F    use ultrasoft PP ?                                      
   IUNSCR =        1    unscreen: 0-lin 1-nonlin 2-no                           
   RPACOR =    1.200    partial core radius                                     
   POMASS =   12.011; ZVAL   =    4.000    mass and valenz                      
   RCORE  =    1.500    outmost cutoff radius                                   
   RWIGS  =    1.630; RWIGS  =    0.863    wigner-seitz radius (au A)           
   ENMAX  =  400.000; ENMIN  =  300.000 eV                                      
   ICORE  =        2    local potential                                         
   LCOR   =        T    correct aug charges                                     
   LPAW   =        T    paw PP                                                  
   EAUG   =  644.873                                                            
   DEXC   =    0.000                                                            
   RMAX   =    1.529    core radius for proj-oper                               
   RAUG   =    1.300    factor for augmentation sphere                          
   RDEP   =    1.501    radius for radial grids                                 
   RDEPT  =    1.300    core radius for aug-charge                              
                                                                                
   Atomic configuration                                                         
    4 entries                                                                   
     n  l   j            E        occ.                                          
     1  0  0.50      -273.3789   2.0000                                         
     2  0  0.50       -13.7508   2.0000                                         
     2  1  0.50        -5.2854   2.0000                                         
     3  2  1.50        -5.4423   0.0000                                         
   Description                                                                  
     l       E           TYP  RCUT    TYP  RCUT                                 
     0    -13.7508458     23  1.200                                             
     0     -8.2022199     23  1.200                                             
     1     -5.2854383     23  1.500                                             
     1     34.0145650     23  1.500                                             
     2     -5.4423304      7  1.500                                             
  local pseudopotential read in
  partial core-charges read in
  partial kinetic energy density read in
  atomic valenz-charges read in
  non local Contribution for L=           0  read in
    real space projection operators read in
  non local Contribution for L=           0  read in
    real space projection operators read in
  non local Contribution for L=           1  read in
    real space projection operators read in
  non local Contribution for L=           1  read in
    real space projection operators read in
    PAW grid and wavefunctions read in
 
   number of l-projection  operators is LMAX  =           4
   number of lm-projection operators is LMMAX =           8
 
  PAW_PBE H 15Jun2001                   :
 energy of atom  1       EATOM=  -12.4884
 kinetic energy error for atom=    0.0098 (will be added to EATOM!!)
  PAW_PBE C 08Apr2002                   :
 energy of atom  2       EATOM= -147.1560
 kinetic energy error for atom=    0.0288 (will be added to EATOM!!)
 
 
 POSCAR:  H  C                                   
  positions in cartesian coordinates
  No initial velocities read in
 exchange correlation table for  LEXCH =        8
   RHO(1)=    0.500       N(1)  =     2000
   RHO(2)=  100.500       N(2)  =     4000
 


--------------------------------------------------------------------------------------------------------


 ion  position               nearest neighbor table
   1  0.538  0.407  0.361-   5 1.11
   2  0.395  0.480  0.439-   5 1.08
   3  0.552  0.565  0.443-   5 1.10
   4  0.528  0.416  0.539-   5 1.10
   5  0.503  0.467  0.445-   2 1.08   4 1.10   3 1.10   1 1.11
 

IMPORTANT INFORMATION: All symmetrisations will be switched off!
NOSYMM: (Re-)initialisation of all symmetry stuff for point group C_1.

 
 

Automatic generation of k-mesh.
 generate k-points for:    2    2    2
Space group operators:
 irot       det(A)        alpha          n_x          n_y          n_z        tau_x        tau_y        tau_z
    1     1.000000     0.000001     1.000000     0.000000     0.000000     0.000000     0.000000     0.000000
 
 Subroutine IBZKPT returns following result:
 ===========================================
 
 Found      4 irreducible k-points:
 
 Following reciprocal coordinates:
            Coordinates               Weight
  0.250000  0.250000  0.250000      2.000000
 -0.250000  0.250000  0.250000      2.000000
  0.250000 -0.250000  0.250000      2.000000
 -0.250000 -0.250000  0.250000      2.000000
 
 Following cartesian coordinates:
            Coordinates               Weight
  0.025100  0.024736  0.023737      2.000000
 -0.025100  0.025729  0.024037      2.000000
  0.025100 -0.025729  0.025147      2.000000
 -0.025100 -0.024736  0.025447      2.000000
 


--------------------------------------------------------------------------------------------------------




 Dimension of arrays:
   k-points           NKPTS =      4   k-points in BZ     NKDIM =      4   number of bands    NBANDS=      8
   number of dos      NEDOS =    301   number of ions     NIONS =      5
   non local maximal  LDIM  =      4   non local SUM 2l+1 LMDIM =      8
   total plane-waves  NPLWV = 343000
   max r-space proj   IRMAX =      1   max aug-charges    IRDMAX=   4234
   dimension x,y,z NGX =    70 NGY =   70 NGZ =   70
   dimension x,y,z NGXF=   140 NGYF=  140 NGZF=  140
   support grid    NGXF=   140 NGYF=  140 NGZF=  140
   ions per type =               4   1
   NGX,Y,Z   is equivalent  to a cutoff of  11.68, 11.74, 11.44 a.u.
   NGXF,Y,Z  is equivalent  to a cutoff of  23.37, 23.49, 22.89 a.u.

 SYSTEM =  unknown system                          
 POSCAR =   H  C                                   

 Startparameter for this run:
   NWRITE =      2    write-flag & timer
   PREC   = a         normal or accurate (medium, high low for compatibility)
   ISTART =      0    job   : 0-new  1-cont  2-samecut
   ICHARG =      2    charge: 1-file 2-atom 10-const
   ISPIN  =      1    spin polarized calculation?
   LNONCOLLINEAR =      F non collinear calculations
   LSORBIT =      F    spin-orbit coupling
   INIWAV =      1    electr: 0-lowe 1-rand  2-diag
   LASPH  =      F    aspherical Exc in radial PAW
   METAGGA=      F    non-selfconsistent MetaGGA calc.

 Electronic Relaxation 1
   ENCUT  =  400.0 eV  29.40 Ry    5.42 a.u.  16.24 16.16 16.58*2*pi/ulx,y,z
   ENINI  =  400.0     initial cutoff
   ENAUG  =  644.9 eV  augmentation charge cutoff
   NELM   =    120;   NELMIN=  4; NELMDL= -5     # of ELM steps 
   EDIFF  = 0.1E-05   stopping-criterion for ELM
   LREAL  =      F    real-space projection
   NLSPLINE    = F    spline interpolate recip. space projectors
   LCOMPAT=      F    compatible to vasp.4.4
   GGA_COMPAT  = T    GGA compatible to vasp.4.4-vasp.4.6
   LMAXPAW     = -100 max onsite density
   LMAXMIX     =    2 max onsite mixed and CHGCAR
   VOSKOWN=      0    Vosko Wilk Nusair interpolation
   ROPT   =    0.00000   0.00000
 Ionic relaxation
   EDIFFG = 0.1E-04   stopping-criterion for IOM
   NSW    =     10    number of steps for IOM
   NBLOCK =      1;   KBLOCK =     10    inner block; outer block 
   IBRION =      0    ionic relax: 0-MD 1-quasi-New 2-CG
   NFREE  =      0    steps in history (QN), initial steepest desc. (CG)
   ISIF   =      2    stress and relaxation
   IWAVPR =     12    prediction:  0-non 1-charg 2-wave 3-comb
   ISYM   =      0    0-nonsym 1-usesym 2-fastsym
   LCORR  =      T    Harris-Foulkes like correction to forces

   POTIM  = 0.5000    time-step for ionic-motion
   TEIN   =    0.0    initial temperature
   TEBEG  =    0.0;   TEEND  =   0.0 temperature during run
   SMASS  =  -3.00    Nose mass-parameter (am)
   estimated Nose-frequenzy (Omega)   =  0.10E-29 period in steps =****** mass=  -0.227E-26a.u.
   SCALEE = 1.0000    scale energy and forces
   NPACO  =    256;   APACO  = 16.0  distance and # of slots for P.C.
   PSTRESS=    0.0 pullay stress

  Mass of Ions in am
   POMASS =   1.00 12.01
  Ionic Valenz
   ZVAL   =   1.00  4.00
  Atomic Wigner-Seitz radii
   RWIGS  =  -1.00 -1.00
  virtual crystal weights 
   VCA    =   1.00  1.00
   NELECT =       8.0000    total number of electrons
   NUPDOWN=      -1.0000    fix difference up-down

 DOS related values:
   EMIN   =  10.00;   EMAX   =-10.00  energy-range for DOS
   EFERMI =   0.00
   ISMEAR =     0;   SIGMA  =   0.20  broadening in eV -4-tet -1-fermi 0-gaus

 Electronic relaxation 2 (details)
   IALGO  =     68    algorithm
   LDIAG  =      T    sub-space diagonalisation (order eigenvalues)
   LSUBROT=      F    optimize rotation matrix (better conditioning)
   TURBO    =      0    0=normal 1=particle mesh
   IRESTART =      0    0=no restart 2=restart with 2 vectors
   NREBOOT  =      0    no. of reboots
   NMIN     =      0    reboot dimension
   EREF     =   0.00    reference energy to select bands
   IMIX   =      4    mixing-type and parameters
     AMIX     =   0.40;   BMIX     =  1.00
     AMIX_MAG =   1.60;   BMIX_MAG =  1.00
     AMIN     =   0.10
     WC   =   100.;   INIMIX=   1;  MIXPRE=   1;  MAXMIX= -45

 Intra band minimization:
   WEIMIN = 0.0010     energy-eigenvalue tresh-hold
   EBREAK =  0.31E-07  absolut break condition
   DEPER  =   0.30     relativ break condition  

   TIME   =   0.40     timestep for ELM

  volume/ion in A,a.u.               =     200.64      1353.98
  Fermi-wavevector in a.u.,A,eV,Ry     =   0.327071  0.618075  1.455493  0.106976
  Thomas-Fermi vector in A             =   1.219481
 
 Write flags
   LWAVE        =      F    write WAVECAR
   LDOWNSAMPLE  =      F    k-point downsampling of WAVECAR
   LCHARG       =      F    write CHGCAR
   LVTOT        =      F    write LOCPOT, total local potential
   LVHAR        =      F    write LOCPOT, Hartree potential only
   LELF         =      F    write electronic localiz. function (ELF)
   LORBIT       =      0    0 simple, 1 ext, 2 COOP (PROOUT), +10 PAW based schemes


 Dipole corrections
   LMONO  =      F    monopole corrections only (constant potential shift)
   LDIPOL =      F    correct potential (dipole corrections)
   IDIPOL =      0    1-x, 2-y, 3-z, 4-all directions 
   EPSILON=  1.0000000 bulk dielectric constant

 Exchange correlation treatment:
   GGA     =    --    GGA type
   LEXCH   =     8    internal setting for exchange type
   VOSKOWN=      0    Vosko Wilk Nusair interpolation
   LHFCALC =     F    Hartree Fock is set to
   LHFONE  =     F    Hartree Fock one center treatment
   AEXX    =    0.0000 exact exchange contribution

 Linear response parameters
   LEPSILON=     F    determine dielectric tensor
   LRPA    =     F    only Hartree local field effects (RPA)
   LNABLA  =     F    use nabla operator in PAW spheres
   LVEL    =     F    velocity operator in full k-point grid
   LINTERFAST=   F  fast interpolation
   KINTER  =     0    interpolate to denser k-point grid
   CSHIFT  =0.1000    complex shift for real part using Kramers Kronig
   OMEGAMAX=  -1.0    maximum frequency
   DEG_THRESHOLD= 0.2000000E-02 threshold for treating states as degnerate
   RTIME   =   -0.100 relaxation time in fs
  (WPLASMAI=    0.000 imaginary part of plasma frequency in eV, 0.658/RTIME)
   DFIELD  = 0.0000000 0.0000000 0.0000000 field for delta impulse in time
 
 Orbital magnetization related:
   ORBITALMAG=     F  switch on orbital magnetization
   LCHIMAG   =     F  perturbation theory with respect to B field
   DQ        =  0.001000  dq finite difference perturbation B field
   LLRAUG    =     F  two centre corrections for induced B field



--------------------------------------------------------------------------------------------------------


 molecular dynamics for ions
   using a microcanonical ensemble
 charge density and potential will be updated during run
 non-spin polarized calculation
 RMM-DIIS sequential band-by-band and
  variant of blocked Davidson during initial phase
 perform sub-space diagonalisation
    before iterative eigenvector-optimisation
 modified Broyden-mixing scheme, WC =      100.0
 initial mixing is a Kerker type mixing with AMIX =  0.4000 and BMIX =      1.0000
 Hartree-type preconditioning will be used
 using additional bands            4
 reciprocal scheme for non local part
 use partial core corrections
 calculate Harris-corrections to forces 
   (improved forces if not selfconsistent)
 use gradient corrections 
 use of overlap-Matrix (Vanderbilt PP)
 Gauss-broadening in eV      SIGMA  =   0.20


--------------------------------------------------------------------------------------------------------


  energy-cutoff  :      400.00
  volume of cell :     1003.20
      direct lattice vectors                 reciprocal lattice vectors
     9.960224087  0.000000000  0.000000000     0.100399348 -0.001986504 -0.000599409
     0.196034610  9.907728539  0.000000000     0.000000000  0.100931308 -0.002819524
     0.066311571  0.283983710 10.165844364     0.000000000  0.000000000  0.098368612

  length of vectors
     9.960224087  9.909667723 10.170026332     0.100420787  0.100970682  0.098368612


 
 k-points in units of 2pi/SCALE and weight: read from INCAR                         
   0.02509984  0.02473620  0.02373742       0.250
  -0.02509984  0.02572945  0.02403712       0.250
   0.02509984 -0.02572945  0.02514718       0.250
  -0.02509984 -0.02473620  0.02544689       0.250
 
 k-points in reciprocal lattice and weights: read from INCAR                         
   0.25000000  0.25000000  0.25000000       0.250
  -0.25000000  0.25000000  0.25000000       0.250
   0.25000000 -0.25000000  0.25000000       0.250
  -0.25000000 -0.25000000  0.25000000       0.250
 
 position of ions in fractional coordinates (direct lattice) 
   0.53769283  0.40742843  0.36072500
   0.39459197  0.47999328  0.43895888
   0.55242933  0.56546574  0.44260920
   0.52781460  0.41602140  0.53922209
   0.50266579  0.46696887  0.44514568
 
 position of ions in cartesian coordinates  (Angst):
   5.45933140  4.13913027  3.66707419
   4.05342784  4.88030029  4.46238765
   5.64252088  5.72817487  4.49949619
   5.37446297  4.27495739  5.48164788
   5.12772427  4.75301496  4.52528169
 


--------------------------------------------------------------------------------------------------------


 k-point  1 :   0.2500 0.2500 0.2500  plane waves:   18219
 k-point  2 :  -0.2500 0.2500 0.2500  plane waves:   18214
 k-point  3 :   0.2500-0.2500 0.2500  plane waves:   18224
 k-point  4 :  -0.2500-0.2500 0.2500  plane waves:   18244

 maximum and minimum number of plane-waves per node :      4579     4538

 maximum number of plane-waves:     18244
 maximum index in each direction: 
   IXMAX=   16   IYMAX=   16   IZMAX=   16
   IXMIN=  -16   IYMIN=  -16   IZMIN=  -16


 parallel 3D FFT for wavefunctions:
    minimum data exchange during FFTs selected (reduces bandwidth)
 parallel 3D FFT for charge:
    minimum data exchange during FFTs selected (reduces bandwidth)


 total amount of memory used by VASP MPI-rank0    55399. kBytes
=======================================================================

   base      :      30000. kBytes
   nonl-proj :       2704. kBytes
   fftplans  :       8576. kBytes
   grid      :      13527. kBytes
   one-center:          6. kBytes
   wavefun   :        586. kBytes
 
     INWAV:  cpu time    0.0000: real time    0.0001
 Broyden mixing: mesh for mixing (old mesh)
   NGX = 33   NGY = 33   NGZ = 33
  (NGX  =140   NGY  =140   NGZ  =140)
  gives a total of  35937 points

 initial charge density was supplied:
 charge density of overlapping atoms calculated
 number of electron       8.0000000 magnetization 
 keeping initial charge density in first step


--------------------------------------------------------------------------------------------------------


 Maximum index for augmentation-charges          184 (set IRDMAX)


--------------------------------------------------------------------------------------------------------


 First call to EWALD:  gamma=   0.177
 Maximum number of real-space cells 3x 3x 3
 Maximum number of reciprocal cells 3x 3x 3

    FEWALD:  cpu time    0.0022: real time    0.0022


--------------------------------------- Iteration      1(   1)  ---------------------------------------


    POTLOK:  cpu time    0.1601: real time    0.1602
    SETDIJ:  cpu time    0.0019: real time    0.0020
     EDDAV:  cpu time    0.2229: real time    0.2230
       DOS:  cpu time    0.0010: real time    0.0010
    --------------------------------------------
      LOOP:  cpu time    0.3859: real time    0.3861

 eigenvalue-minimisations  :    96
 total energy-change (2. order) : 0.1396229E+02  (-0.1879432E+03)
 number of electron       8.0000000 magnetization 
 augmentation part        8.0000000 magnetization 

 Free energy of the ion-electron system (eV)
  ---------------------------------------------------
  alpha Z        PSCENC =         0.24147854
  Ewald energy   TEWEN  =       128.73289380
  -Hartree energ DENC   =      -244.05467023
  -exchange      EXHF   =         0.00000000
  -V(xc)+E(xc)   XCENC  =        22.00658363
  PAW double counting   =       117.05815612     -117.66307307
  entropy T*S    EENTRO =        -0.00000000
  eigenvalues    EBANDS =       -89.40083135
  atomic energy  EATOM  =       197.04175453
  Solvation  Ediel_sol  =         0.00000000
  ---------------------------------------------------
  free energy    TOTEN  =        13.96229197 eV

  energy without entropy =       13.96229197  energy(sigma->0) =       13.96229197


--------------------------------------------------------------------------------------------------------




--------------------------------------- Iteration      1(   2)  ---------------------------------------


     EDDAV:  cpu time    0.1670: real time    0.1671
       DOS:  cpu time    0.0002: real time    0.0002
    --------------------------------------------
      LOOP:  cpu time    0.1672: real time    0.1673

 eigenvalue-minimisations  :    64
 total energy-change (2. order) :-0.3688038E+02  (-0.3688038E+02)
 number of electron       8.0000000 magnetization 
 augmentation part        8.0000000 magnetization 

 Free energy of the ion-electron system (eV)
  ---------------------------------------------------
  alpha Z        PSCENC =         0.24147854
  Ewald energy   TEWEN  =       128.73289380
  -Hartree energ DENC   =      -244.05467023
  -exchange      EXHF   =         0.00000000
  -V(xc)+E(xc)   XCENC  =        22.00658363
  PAW double counting   =       117.05815612     -117.66307307
  entropy T*S    EENTRO =        -0.00000000
  eigenvalues    EBANDS =      -126.28120819
  atomic energy  EATOM  =       197.04175453
  Solvation  Ediel_sol  =         0.00000000
  ---------------------------------------------------
  free energy    TOTEN  =       -22.91808487 eV

  energy without entropy =      -22.91808487  energy(sigma->0) =      -22.91808487


--------------------------------------------------------------------------------------------------------




--------------------------------------- Iteration      1(   3)  ---------------------------------------


     EDDAV:  cpu time    0.1654: real time    0.1658
       DOS:  cpu time    0.0002: real time    0.0002
    --------------------------------------------
      LOOP:  cpu time    0.1656: real time    0.1660

 eigenvalue-minimisations  :    64
 total energy-change (2. order) :-0.4448384E+01  (-0.4448384E+01)
 number of electron       8.0000000 magnetization 
 augmentation part        8.0000000 magnetization 

 Free energy of the ion-electron system (eV)
  ---------------------------------------------------
  alpha Z        PSCENC =         0.24147854
  Ewald energy   TEWEN  =       128.73289380
  -Hartree energ DENC   =      -244.05467023
  -exchange      EXHF   =         0.00000000
  -V(xc)+E(xc)   XCENC  =        22.00658363
  PAW double counting   =       117.05815612     -117.66307307
  entropy T*S    EENTRO =        -0.00000000
  eigenvalues    EBANDS =      -130.72959234
  atomic energy  EATOM  =       197.04175453
  Solvation  Ediel_sol  =         0.00000000
  ---------------------------------------------------
  free energy    TOTEN  =       -27.36646902 eV

  energy without entropy =      -27.36646902  energy(sigma->0) =      -27.36646902


--------------------------------------------------------------------------------------------------------




--------------------------------------- Iteration      1(   4)  ---------------------------------------


     EDDAV:  cpu time    0.2750: real time    0.2754
       DOS:  cpu time    0.0003: real time    0.0003
    --------------------------------------------
      LOOP:  cpu time    0.2752: real time    0.2757

 eigenvalue-minimisations  :   128
 total energy-change (2. order) :-0.1736761E+00  (-0.1736761E+00)
 number of electron       8.0000000 magnetization 
 augmentation part        8.0000000 magnetization 

 Free energy of the ion-electron system (eV)
  ---------------------------------------------------
  alpha Z        PSCENC =         0.24147854
  Ewald energy   TEWEN  =       128.73289380
  -Hartree energ DENC   =      -244.05467023
  -exchange      EXHF   =         0.00000000
  -V(xc)+E(xc)   XCENC  =        22.00658363
  PAW double counting   =       117.05815612     -117.66307307
  entropy T*S    EENTRO =        -0.00000000
  eigenvalues    EBANDS =      -130.90326849
  atomic energy  EATOM  =       197.04175453
  Solvation  Ediel_sol  =         0.00000000
  ---------------------------------------------------
  free energy    TOTEN  =       -27.54014516 eV

  energy without entropy =      -27.54014516  energy(sigma->0) =      -27.54014516


--------------------------------------------------------------------------------------------------------




--------------------------------------- Iteration      1(   5)  ---------------------------------------


     EDDAV:  cpu time    0.2196: real time    0.2197
       DOS:  cpu time    0.0002: real time    0.0002
    CHARGE:  cpu time    0.0235: real time    0.0235
    MIXING:  cpu time    0.0050: real time    0.0050
    --------------------------------------------
      LOOP:  cpu time    0.2484: real time    0.2485

 eigenvalue-minimisations  :    96
 total energy-change (2. order) :-0.5415223E-04  (-0.5415226E-04)
 number of electron       8.0000001 magnetization 
 augmentation part        0.2250753 magnetization 

 Broyden mixing:
  rms(total) = 0.87069E+00    rms(broyden)= 0.87050E+00
  rms(prec ) = 0.12317E+01
  weight for this iteration     100.00

 Free energy of the ion-electron system (eV)
  ---------------------------------------------------
  alpha Z        PSCENC =         0.24147854
  Ewald energy   TEWEN  =       128.73289380
  -Hartree energ DENC   =      -244.05467023
  -exchange      EXHF   =         0.00000000
  -V(xc)+E(xc)   XCENC  =        22.00658363
  PAW double counting   =       117.05815612     -117.66307307
  entropy T*S    EENTRO =        -0.00000000
  eigenvalues    EBANDS =      -130.90332264
  atomic energy  EATOM  =       197.04175453
  Solvation  Ediel_sol  =         0.00000000
  ---------------------------------------------------
  free energy    TOTEN  =       -27.54019931 eV

  energy without entropy =      -27.54019931  energy(sigma->0) =      -27.54019931


--------------------------------------------------------------------------------------------------------




--------------------------------------- Iteration      1(   6)  ---------------------------------------


    POTLOK:  cpu time    0.1553: real time    0.1554
    SETDIJ:  cpu time    0.0018: real time    0.0018
    EDDIAG:  cpu time    0.0471: real time    0.0471
  RMM-DIIS:  cpu time    0.1709: real time    0.1709
    ORTHCH:  cpu time    0.0019: real time    0.0019
       DOS:  cpu time    0.0002: real time    0.0002
    CHARGE:  cpu time    0.0224: real time    0.0227
    MIXING:  cpu time    0.0053: real time    0.0053
    --------------------------------------------
      LOOP:  cpu time    0.4048: real time    0.4054

 eigenvalue-minimisations  :    64
 total energy-change (2. order) : 0.2885885E+01  (-0.5338245E+00)
 number of electron       8.0000000 magnetization 
 augmentation part        0.1983696 magnetization 

 Broyden mixing:
  rms(total) = 0.42895E+00    rms(broyden)= 0.42887E+00
  rms(prec ) = 0.55590E+00
  weight for this iteration     100.00

 eigenvalues of (default mixing * dielectric matrix)
  average eigenvalue GAMMA=   1.3046
  1.3046

 Free energy of the ion-electron system (eV)
  ---------------------------------------------------
  alpha Z        PSCENC =         0.24147854
  Ewald energy   TEWEN  =       128.73289380
  -Hartree energ DENC   =      -263.75912366
  -exchange      EXHF   =         0.00000000
  -V(xc)+E(xc)   XCENC  =        23.20251834
  PAW double counting   =       238.18796167     -238.96742098
  entropy T*S    EENTRO =        -0.00000000
  eigenvalues    EBANDS =      -109.33437608
  atomic energy  EATOM  =       197.04175453
  Solvation  Ediel_sol  =         0.00000000
  ---------------------------------------------------
  free energy    TOTEN  =       -24.65431383 eV

  energy without entropy =      -24.65431383  energy(sigma->0) =      -24.65431383


--------------------------------------------------------------------------------------------------------




--------------------------------------- Iteration      1(   7)  ---------------------------------------


    POTLOK:  cpu time    0.1602: real time    0.1603
    SETDIJ:  cpu time    0.0023: real time    0.0023
    EDDIAG:  cpu time    0.0440: real time    0.0440
  RMM-DIIS:  cpu time    0.1704: real time    0.1704
    ORTHCH:  cpu time    0.0016: real time    0.0016
       DOS:  cpu time    0.0002: real time    0.0002
    CHARGE:  cpu time    0.0207: real time    0.0207
    MIXING:  cpu time    0.0053: real time    0.0053
    --------------------------------------------
      LOOP:  cpu time    0.4047: real time    0.4048

 eigenvalue-minimisations  :    64
 total energy-change (2. order) : 0.4913341E+00  (-0.1205447E+00)
 number of electron       8.0000000 magnetization 
 augmentation part        0.1879040 magnetization 

 Broyden mixing:
  rms(total) = 0.22800E+00    rms(broyden)= 0.22795E+00
  rms(prec ) = 0.27538E+00
  weight for this iteration     100.00

 eigenvalues of (default mixing * dielectric matrix)
  average eigenvalue GAMMA=   1.8420
  1.4559  2.2281

 Free energy of the ion-electron system (eV)
  ---------------------------------------------------
  alpha Z        PSCENC =         0.24147854
  Ewald energy   TEWEN  =       128.73289380
  -Hartree energ DENC   =      -275.40584265
  -exchange      EXHF   =         0.00000000
  -V(xc)+E(xc)   XCENC  =        24.05856029
  PAW double counting   =       364.51340313     -365.33195478
  entropy T*S    EENTRO =        -0.00000000
  eigenvalues    EBANDS =       -98.01327258
  atomic energy  EATOM  =       197.04175453
  Solvation  Ediel_sol  =         0.00000000
  ---------------------------------------------------
  free energy    TOTEN  =       -24.16297972 eV

  energy without entropy =      -24.16297972  energy(sigma->0) =      -24.16297972


--------------------------------------------------------------------------------------------------------




--------------------------------------- Iteration      1(   8)  ---------------------------------------


    POTLOK:  cpu time    0.1592: real time    0.1594
    SETDIJ:  cpu time    0.0025: real time    0.0025
    EDDIAG:  cpu time    0.0432: real time    0.0432
  RMM-DIIS:  cpu time    0.1717: real time    0.1717
    ORTHCH:  cpu time    0.0018: real time    0.0018
       DOS:  cpu time    0.0002: real time    0.0002
    CHARGE:  cpu time    0.0208: real time    0.0208
    MIXING:  cpu time    0.0052: real time    0.0052
    --------------------------------------------
      LOOP:  cpu time    0.4047: real time    0.4049

 eigenvalue-minimisations  :    64
 total energy-change (2. order) : 0.1462823E+00  (-0.1624207E-01)
 number of electron       8.0000000 magnetization 
 augmentation part        0.1865264 magnetization 

 Broyden mixing:
  rms(total) = 0.22571E-01    rms(broyden)= 0.22549E-01
  rms(prec ) = 0.52448E-01
  weight for this iteration     100.00

 eigenvalues of (default mixing * dielectric matrix)
  average eigenvalue GAMMA=   1.5487
  2.2480  0.9915  1.4067

 Free energy of the ion-electron system (eV)
  ---------------------------------------------------
  alpha Z        PSCENC =         0.24147854
  Ewald energy   TEWEN  =       128.73289380
  -Hartree energ DENC   =      -280.81514960
  -exchange      EXHF   =         0.00000000
  -V(xc)+E(xc)   XCENC  =        24.59486109
  PAW double counting   =       473.39835252     -474.18501671
  entropy T*S    EENTRO =        -0.00000000
  eigenvalues    EBANDS =       -93.02587153
  atomic energy  EATOM  =       197.04175453
  Solvation  Ediel_sol  =         0.00000000
  ---------------------------------------------------
  free energy    TOTEN  =       -24.01669737 eV

  energy without entropy =      -24.01669737  energy(sigma->0) =      -24.01669737


--------------------------------------------------------------------------------------------------------




--------------------------------------- Iteration      1(   9)  ---------------------------------------


    POTLOK:  cpu time    0.1586: real time    0.1587
    SETDIJ:  cpu time    0.0019: real time    0.0019
    EDDIAG:  cpu time    0.0434: real time    0.0437
  RMM-DIIS:  cpu time    0.1737: real time    0.1737
    ORTHCH:  cpu time    0.0018: real time    0.0018
       DOS:  cpu time    0.0002: real time    0.0002
    CHARGE:  cpu time    0.0206: real time    0.0206
    MIXING:  cpu time    0.0055: real time    0.0055
    --------------------------------------------
      LOOP:  cpu time    0.4057: real time    0.4061

 eigenvalue-minimisations  :    64
 total energy-change (2. order) : 0.5644275E-02  (-0.1100421E-02)
 number of electron       8.0000000 magnetization 
 augmentation part        0.1859606 magnetization 

 Broyden mixing:
  rms(total) = 0.19519E-01    rms(broyden)= 0.19515E-01
  rms(prec ) = 0.40251E-01
  weight for this iteration     100.00

 eigenvalues of (default mixing * dielectric matrix)
  average eigenvalue GAMMA=   2.0950
  3.0629  2.9400  1.0030  1.3742

 Free energy of the ion-electron system (eV)
  ---------------------------------------------------
  alpha Z        PSCENC =         0.24147854
  Ewald energy   TEWEN  =       128.73289380
  -Hartree energ DENC   =      -282.06967421
  -exchange      EXHF   =         0.00000000
  -V(xc)+E(xc)   XCENC  =        24.66407447
  PAW double counting   =       476.71158397     -477.50089573
  entropy T*S    EENTRO =        -0.00000000
  eigenvalues    EBANDS =       -91.83226847
  atomic energy  EATOM  =       197.04175453
  Solvation  Ediel_sol  =         0.00000000
  ---------------------------------------------------
  free energy    TOTEN  =       -24.01105309 eV

  energy without entropy =      -24.01105309  energy(sigma->0) =      -24.01105309


--------------------------------------------------------------------------------------------------------




--------------------------------------- Iteration      1(  10)  ---------------------------------------


    POTLOK:  cpu time    0.1531: real time    0.1532
    SETDIJ:  cpu time    0.0022: real time    0.0022
    EDDIAG:  cpu time    0.0427: real time    0.0427
  RMM-DIIS:  cpu time    0.1722: real time    0.1722
    ORTHCH:  cpu time    0.0018: real time    0.0018
       DOS:  cpu time    0.0002: real time    0.0002
    CHARGE:  cpu time    0.0206: real time    0.0207
    MIXING:  cpu time    0.0056: real time    0.0056
    --------------------------------------------
      LOOP:  cpu time    0.3984: real time    0.3987

 eigenvalue-minimisations  :    64
 total energy-change (2. order) : 0.6209528E-02  (-0.2407358E-02)
 number of electron       8.0000000 magnetization 
 augmentation part        0.1849274 magnetization 

 Broyden mixing:
  rms(total) = 0.27570E-01    rms(broyden)= 0.27569E-01
  rms(prec ) = 0.35098E-01
  weight for this iteration     100.00

 eigenvalues of (default mixing * dielectric matrix)
  average eigenvalue GAMMA=   1.7838
  3.0712  2.4274  1.2204  1.2204  0.9794

 Free energy of the ion-electron system (eV)
  ---------------------------------------------------
  alpha Z        PSCENC =         0.24147854
  Ewald energy   TEWEN  =       128.73289380
  -Hartree energ DENC   =      -284.25864805
  -exchange      EXHF   =         0.00000000
  -V(xc)+E(xc)   XCENC  =        24.73391228
  PAW double counting   =       460.85133095     -461.64412105
  entropy T*S    EENTRO =        -0.00000000
  eigenvalues    EBANDS =       -89.70344457
  atomic energy  EATOM  =       197.04175453
  Solvation  Ediel_sol  =         0.00000000
  ---------------------------------------------------
  free energy    TOTEN  =       -24.00484356 eV

  energy without entropy =      -24.00484356  energy(sigma->0) =      -24.00484356


--------------------------------------------------------------------------------------------------------




--------------------------------------- Iteration      1(  11)  ---------------------------------------


    POTLOK:  cpu time    0.1537: real time    0.1539
    SETDIJ:  cpu time    0.0020: real time    0.0020
    EDDIAG:  cpu time    0.0427: real time    0.0427
  RMM-DIIS:  cpu time    0.1705: real time    0.1709
    ORTHCH:  cpu time    0.0016: real time    0.0016
       DOS:  cpu time    0.0002: real time    0.0002
    CHARGE:  cpu time    0.0213: real time    0.0213
    MIXING:  cpu time    0.0057: real time    0.0057
    --------------------------------------------
      LOOP:  cpu time    0.3976: real time    0.3983

 eigenvalue-minimisations  :    64
 total energy-change (2. order) :-0.7103886E-03  (-0.7686651E-03)
 number of electron       8.0000000 magnetization 
 augmentation part        0.1852774 magnetization 

 Broyden mixing:
  rms(total) = 0.79694E-02    rms(broyden)= 0.79665E-02
  rms(prec ) = 0.13846E-01
  weight for this iteration     100.00

 eigenvalues of (default mixing * dielectric matrix)
  average eigenvalue GAMMA=   2.2856
  4.8748  3.1022  2.4322  1.2879  1.0082  1.0082

 Free energy of the ion-electron system (eV)
  ---------------------------------------------------
  alpha Z        PSCENC =         0.24147854
  Ewald energy   TEWEN  =       128.73289380
  -Hartree energ DENC   =      -284.15929568
  -exchange      EXHF   =         0.00000000
  -V(xc)+E(xc)   XCENC  =        24.74826592
  PAW double counting   =       469.97205939     -470.75747692
  entropy T*S    EENTRO =        -0.00000000
  eigenvalues    EBANDS =       -89.82523353
  atomic energy  EATOM  =       197.04175453
  Solvation  Ediel_sol  =         0.00000000
  ---------------------------------------------------
  free energy    TOTEN  =       -24.00555395 eV

  energy without entropy =      -24.00555395  energy(sigma->0) =      -24.00555395


--------------------------------------------------------------------------------------------------------




--------------------------------------- Iteration      1(  12)  ---------------------------------------


    POTLOK:  cpu time    0.1453: real time    0.1454
    SETDIJ:  cpu time    0.0020: real time    0.0020
    EDDIAG:  cpu time    0.0425: real time    0.0425
  RMM-DIIS:  cpu time    0.1730: real time    0.1730
    ORTHCH:  cpu time    0.0016: real time    0.0016
       DOS:  cpu time    0.0002: real time    0.0002
    CHARGE:  cpu time    0.0206: real time    0.0206
    MIXING:  cpu time    0.0058: real time    0.0058
    --------------------------------------------
      LOOP:  cpu time    0.3909: real time    0.3911

 eigenvalue-minimisations  :    64
 total energy-change (2. order) :-0.9651144E-02  (-0.3645625E-03)
 number of electron       8.0000000 magnetization 
 augmentation part        0.1855022 magnetization 

 Broyden mixing:
  rms(total) = 0.12501E-01    rms(broyden)= 0.12500E-01
  rms(prec ) = 0.16305E-01
  weight for this iteration     100.00

 eigenvalues of (default mixing * dielectric matrix)
  average eigenvalue GAMMA=   2.0212
  4.8408  2.9458  2.4319  1.2422  1.0018  1.0018  0.6839

 Free energy of the ion-electron system (eV)
  ---------------------------------------------------
  alpha Z        PSCENC =         0.24147854
  Ewald energy   TEWEN  =       128.73289380
  -Hartree energ DENC   =      -284.36078750
  -exchange      EXHF   =         0.00000000
  -V(xc)+E(xc)   XCENC  =        24.74025357
  PAW double counting   =       467.02535421     -467.80952578
  entropy T*S    EENTRO =        -0.00000000
  eigenvalues    EBANDS =       -89.62662648
  atomic energy  EATOM  =       197.04175453
  Solvation  Ediel_sol  =         0.00000000
  ---------------------------------------------------
  free energy    TOTEN  =       -24.01520510 eV

  energy without entropy =      -24.01520510  energy(sigma->0) =      -24.01520510


--------------------------------------------------------------------------------------------------------




--------------------------------------- Iteration      1(  13)  ---------------------------------------


    POTLOK:  cpu time    0.1443: real time    0.1444
    SETDIJ:  cpu time    0.0027: real time    0.0027
    EDDIAG:  cpu time    0.0427: real time    0.0428
  RMM-DIIS:  cpu time    0.1690: real time    0.1691
    ORTHCH:  cpu time    0.0016: real time    0.0016
       DOS:  cpu time    0.0002: real time    0.0002
    CHARGE:  cpu time    0.0206: real time    0.0206
    MIXING:  cpu time    0.0059: real time    0.0059
    --------------------------------------------
      LOOP:  cpu time    0.3870: real time    0.3873

 eigenvalue-minimisations  :    64
 total energy-change (2. order) :-0.4461454E-03  (-0.8796933E-04)
 number of electron       8.0000000 magnetization 
 augmentation part        0.1852763 magnetization 

 Broyden mixing:
  rms(total) = 0.53529E-02    rms(broyden)= 0.53528E-02
  rms(prec ) = 0.71942E-02
  weight for this iteration     100.00

 eigenvalues of (default mixing * dielectric matrix)
  average eigenvalue GAMMA=   2.4531
  6.2353  4.1760  2.5346  2.3830  1.2116  1.2116  0.9987  0.8736

 Free energy of the ion-electron system (eV)
  ---------------------------------------------------
  alpha Z        PSCENC =         0.24147854
  Ewald energy   TEWEN  =       128.73289380
  -Hartree energ DENC   =      -284.53875097
  -exchange      EXHF   =         0.00000000
  -V(xc)+E(xc)   XCENC  =        24.74533236
  PAW double counting   =       466.82339084     -467.60986552
  entropy T*S    EENTRO =        -0.00000000
  eigenvalues    EBANDS =       -89.45188482
  atomic energy  EATOM  =       197.04175453
  Solvation  Ediel_sol  =         0.00000000
  ---------------------------------------------------
  free energy    TOTEN  =       -24.01565124 eV

  energy without entropy =      -24.01565124  energy(sigma->0) =      -24.01565124


--------------------------------------------------------------------------------------------------------




--------------------------------------- Iteration      1(  14)  ---------------------------------------


    POTLOK:  cpu time    0.1424: real time    0.1427
    SETDIJ:  cpu time    0.0020: real time    0.0020
    EDDIAG:  cpu time    0.0423: real time    0.0423
  RMM-DIIS:  cpu time    0.1706: real time    0.1709
    ORTHCH:  cpu time    0.0017: real time    0.0017
       DOS:  cpu time    0.0002: real time    0.0002
    CHARGE:  cpu time    0.0203: real time    0.0203
    MIXING:  cpu time    0.0061: real time    0.0061
    --------------------------------------------
      LOOP:  cpu time    0.3856: real time    0.3860

 eigenvalue-minimisations  :    64
 total energy-change (2. order) :-0.2882352E-02  (-0.1707264E-03)
 number of electron       8.0000000 magnetization 
 augmentation part        0.1851014 magnetization 

 Broyden mixing:
  rms(total) = 0.39856E-02    rms(broyden)= 0.39839E-02
  rms(prec ) = 0.51514E-02
  weight for this iteration     100.00

 eigenvalues of (default mixing * dielectric matrix)
  average eigenvalue GAMMA=   2.3355
  6.5082  4.1502  2.5267  2.4136  1.1855  1.1855  1.1382  0.9560  0.9560

 Free energy of the ion-electron system (eV)
  ---------------------------------------------------
  alpha Z        PSCENC =         0.24147854
  Ewald energy   TEWEN  =       128.73289380
  -Hartree energ DENC   =      -284.57042871
  -exchange      EXHF   =         0.00000000
  -V(xc)+E(xc)   XCENC  =        24.73639655
  PAW double counting   =       465.99567514     -466.78395198
  entropy T*S    EENTRO =        -0.00000000
  eigenvalues    EBANDS =       -89.41235146
  atomic energy  EATOM  =       197.04175453
  Solvation  Ediel_sol  =         0.00000000
  ---------------------------------------------------
  free energy    TOTEN  =       -24.01853359 eV

  energy without entropy =      -24.01853359  energy(sigma->0) =      -24.01853359


--------------------------------------------------------------------------------------------------------




--------------------------------------- Iteration      1(  15)  ---------------------------------------


    POTLOK:  cpu time    0.1424: real time    0.1425
    SETDIJ:  cpu time    0.0023: real time    0.0023
    EDDIAG:  cpu time    0.0429: real time    0.0429
  RMM-DIIS:  cpu time    0.1706: real time    0.1707
    ORTHCH:  cpu time    0.0020: real time    0.0020
       DOS:  cpu time    0.0002: real time    0.0002
    CHARGE:  cpu time    0.0201: real time    0.0201
    MIXING:  cpu time    0.0064: real time    0.0064
    --------------------------------------------
      LOOP:  cpu time    0.3868: real time    0.3870

 eigenvalue-minimisations  :    64
 total energy-change (2. order) :-0.1973217E-03  (-0.7503896E-05)
 number of electron       8.0000000 magnetization 
 augmentation part        0.1850920 magnetization 

 Broyden mixing:
  rms(total) = 0.17130E-02    rms(broyden)= 0.17129E-02
  rms(prec ) = 0.22281E-02
  weight for this iteration     100.00

 eigenvalues of (default mixing * dielectric matrix)
  average eigenvalue GAMMA=   2.5630
  7.6064  4.9164  2.9893  2.5788  2.1087  1.2707  1.2707  1.0084  0.9839  0.8966

 Free energy of the ion-electron system (eV)
  ---------------------------------------------------
  alpha Z        PSCENC =         0.24147854
  Ewald energy   TEWEN  =       128.73289380
  -Hartree energ DENC   =      -284.52686369
  -exchange      EXHF   =         0.00000000
  -V(xc)+E(xc)   XCENC  =        24.73508142
  PAW double counting   =       466.17321484     -466.96057387
  entropy T*S    EENTRO =        -0.00000000
  eigenvalues    EBANDS =       -89.45571648
  atomic energy  EATOM  =       197.04175453
  Solvation  Ediel_sol  =         0.00000000
  ---------------------------------------------------
  free energy    TOTEN  =       -24.01873092 eV

  energy without entropy =      -24.01873092  energy(sigma->0) =      -24.01873092


--------------------------------------------------------------------------------------------------------




--------------------------------------- Iteration      1(  16)  ---------------------------------------


    POTLOK:  cpu time    0.1440: real time    0.1441
    SETDIJ:  cpu time    0.0020: real time    0.0020
    EDDIAG:  cpu time    0.0423: real time    0.0423
  RMM-DIIS:  cpu time    0.1700: real time    0.1700
    ORTHCH:  cpu time    0.0016: real time    0.0016
       DOS:  cpu time    0.0002: real time    0.0002
    CHARGE:  cpu time    0.0203: real time    0.0203
    MIXING:  cpu time    0.0067: real time    0.0067
    --------------------------------------------
      LOOP:  cpu time    0.3871: real time    0.3873

 eigenvalue-minimisations  :    64
 total energy-change (2. order) :-0.2162393E-03  (-0.1835860E-04)
 number of electron       8.0000000 magnetization 
 augmentation part        0.1851714 magnetization 

 Broyden mixing:
  rms(total) = 0.14061E-02    rms(broyden)= 0.14056E-02
  rms(prec ) = 0.18619E-02
  weight for this iteration     100.00

 eigenvalues of (default mixing * dielectric matrix)
  average eigenvalue GAMMA=   2.4859
  7.7752  4.8412  3.5269  2.4087  2.3175  1.2590  1.2590  1.0390  1.0390  0.9296
  0.9492

 Free energy of the ion-electron system (eV)
  ---------------------------------------------------
  alpha Z        PSCENC =         0.24147854
  Ewald energy   TEWEN  =       128.73289380
  -Hartree energ DENC   =      -284.48895192
  -exchange      EXHF   =         0.00000000
  -V(xc)+E(xc)   XCENC  =        24.73425806
  PAW double counting   =       466.25708901     -467.04373075
  entropy T*S    EENTRO =        -0.00000000
  eigenvalues    EBANDS =       -89.49373843
  atomic energy  EATOM  =       197.04175453
  Solvation  Ediel_sol  =         0.00000000
  ---------------------------------------------------
  free energy    TOTEN  =       -24.01894715 eV

  energy without entropy =      -24.01894715  energy(sigma->0) =      -24.01894715


--------------------------------------------------------------------------------------------------------




--------------------------------------- Iteration      1(  17)  ---------------------------------------


    POTLOK:  cpu time    0.1458: real time    0.1467
    SETDIJ:  cpu time    0.0021: real time    0.0021
    EDDIAG:  cpu time    0.0424: real time    0.0424
  RMM-DIIS:  cpu time    0.1714: real time    0.1714
    ORTHCH:  cpu time    0.0020: real time    0.0020
       DOS:  cpu time    0.0002: real time    0.0002
    CHARGE:  cpu time    0.0203: real time    0.0203
    MIXING:  cpu time    0.0070: real time    0.0070
    --------------------------------------------
      LOOP:  cpu time    0.3911: real time    0.3920

 eigenvalue-minimisations  :    64
 total energy-change (2. order) :-0.1858199E-04  (-0.3746847E-05)
 number of electron       8.0000000 magnetization 
 augmentation part        0.1851324 magnetization 

 Broyden mixing:
  rms(total) = 0.19211E-03    rms(broyden)= 0.19204E-03
  rms(prec ) = 0.27355E-03
  weight for this iteration     100.00

 eigenvalues of (default mixing * dielectric matrix)
  average eigenvalue GAMMA=   2.5838
  8.3974  5.2175  3.9388  2.6096  2.4694  1.8674  1.3201  1.3201  1.0405  1.0026
  0.9343  0.8878

 Free energy of the ion-electron system (eV)
  ---------------------------------------------------
  alpha Z        PSCENC =         0.24147854
  Ewald energy   TEWEN  =       128.73289380
  -Hartree energ DENC   =      -284.53906692
  -exchange      EXHF   =         0.00000000
  -V(xc)+E(xc)   XCENC  =        24.73658278
  PAW double counting   =       466.25901734     -467.04612160
  entropy T*S    EENTRO =        -0.00000000
  eigenvalues    EBANDS =       -89.44550420
  atomic energy  EATOM  =       197.04175453
  Solvation  Ediel_sol  =         0.00000000
  ---------------------------------------------------
  free energy    TOTEN  =       -24.01896574 eV

  energy without entropy =      -24.01896574  energy(sigma->0) =      -24.01896574


--------------------------------------------------------------------------------------------------------




--------------------------------------- Iteration      1(  18)  ---------------------------------------


    POTLOK:  cpu time    0.1490: real time    0.1493
    SETDIJ:  cpu time    0.0022: real time    0.0022
    EDDIAG:  cpu time    0.0422: real time    0.0422
  RMM-DIIS:  cpu time    0.1377: real time    0.1378
    ORTHCH:  cpu time    0.0016: real time    0.0016
       DOS:  cpu time    0.0002: real time    0.0002
    CHARGE:  cpu time    0.0204: real time    0.0204
    MIXING:  cpu time    0.0069: real time    0.0069
    --------------------------------------------
      LOOP:  cpu time    0.3602: real time    0.3606

 eigenvalue-minimisations  :    48
 total energy-change (2. order) :-0.1520118E-04  (-0.1530499E-06)
 number of electron       8.0000000 magnetization 
 augmentation part        0.1851294 magnetization 

 Broyden mixing:
  rms(total) = 0.84492E-04    rms(broyden)= 0.84418E-04
  rms(prec ) = 0.12904E-03
  weight for this iteration     100.00

 eigenvalues of (default mixing * dielectric matrix)
  average eigenvalue GAMMA=   2.5750
  8.4681  5.3870  3.7245  3.2511  2.4908  2.2309  1.3098  1.3098  1.2783  1.1710
  0.8916  0.9808  0.9808

 Free energy of the ion-electron system (eV)
  ---------------------------------------------------
  alpha Z        PSCENC =         0.24147854
  Ewald energy   TEWEN  =       128.73289380
  -Hartree energ DENC   =      -284.53104703
  -exchange      EXHF   =         0.00000000
  -V(xc)+E(xc)   XCENC  =        24.73592587
  PAW double counting   =       466.16141494     -466.94850812
  entropy T*S    EENTRO =        -0.00000000
  eigenvalues    EBANDS =       -89.45289347
  atomic energy  EATOM  =       197.04175453
  Solvation  Ediel_sol  =         0.00000000
  ---------------------------------------------------
  free energy    TOTEN  =       -24.01898094 eV

  energy without entropy =      -24.01898094  energy(sigma->0) =      -24.01898094


--------------------------------------------------------------------------------------------------------




--------------------------------------- Iteration      1(  19)  ---------------------------------------


    POTLOK:  cpu time    0.1506: real time    0.1507
    SETDIJ:  cpu time    0.0022: real time    0.0022
    EDDIAG:  cpu time    0.0422: real time    0.0422
  RMM-DIIS:  cpu time    0.1369: real time    0.1371
    ORTHCH:  cpu time    0.0025: real time    0.0025
       DOS:  cpu time    0.0002: real time    0.0002
    CHARGE:  cpu time    0.0201: real time    0.0201
    MIXING:  cpu time    0.0071: real time    0.0071
    --------------------------------------------
      LOOP:  cpu time    0.3618: real time    0.3621

 eigenvalue-minimisations  :    48
 total energy-change (2. order) :-0.2658255E-05  (-0.4467772E-07)
 number of electron       8.0000000 magnetization 
 augmentation part        0.1851279 magnetization 

 Broyden mixing:
  rms(total) = 0.10899E-03    rms(broyden)= 0.10897E-03
  rms(prec ) = 0.14370E-03
  weight for this iteration     100.00

 eigenvalues of (default mixing * dielectric matrix)
  average eigenvalue GAMMA=   2.5436
  8.5081  5.5236  3.9819  3.2716  2.5354  2.4345  1.9399  1.3096  1.3096  1.0488
  0.9606  0.9606  0.8926  0.9331

 Free energy of the ion-electron system (eV)
  ---------------------------------------------------
  alpha Z        PSCENC =         0.24147854
  Ewald energy   TEWEN  =       128.73289380
  -Hartree energ DENC   =      -284.52831198
  -exchange      EXHF   =         0.00000000
  -V(xc)+E(xc)   XCENC  =        24.73570239
  PAW double counting   =       466.14779603     -466.93488407
  entropy T*S    EENTRO =        -0.00000000
  eigenvalues    EBANDS =       -89.45541284
  atomic energy  EATOM  =       197.04175453
  Solvation  Ediel_sol  =         0.00000000
  ---------------------------------------------------
  free energy    TOTEN  =       -24.01898360 eV

  energy without entropy =      -24.01898360  energy(sigma->0) =      -24.01898360


--------------------------------------------------------------------------------------------------------




--------------------------------------- Iteration      1(  20)  ---------------------------------------


    POTLOK:  cpu time    0.1519: real time    0.1520
    SETDIJ:  cpu time    0.0023: real time    0.0023
    EDDIAG:  cpu time    0.0423: real time    0.0423
  RMM-DIIS:  cpu time    0.1374: real time    0.1381
    ORTHCH:  cpu time    0.0017: real time    0.0017
       DOS:  cpu time    0.0002: real time    0.0002
    CHARGE:  cpu time    0.0202: real time    0.0202
    MIXING:  cpu time    0.0073: real time    0.0073
    --------------------------------------------
      LOOP:  cpu time    0.3632: real time    0.3640

 eigenvalue-minimisations  :    48
 total energy-change (2. order) :-0.1481780E-05  (-0.1756170E-07)
 number of electron       8.0000000 magnetization 
 augmentation part        0.1851292 magnetization 

 Broyden mixing:
  rms(total) = 0.23370E-04    rms(broyden)= 0.23362E-04
  rms(prec ) = 0.30055E-04
  weight for this iteration     100.00

 eigenvalues of (default mixing * dielectric matrix)
  average eigenvalue GAMMA=   2.4935
  8.5249  5.5980  4.0263  3.7455  2.4553  2.4553  1.9948  1.3085  1.3085  1.0500
  1.0500  1.0714  0.8845  0.9648  0.9648

 Free energy of the ion-electron system (eV)
  ---------------------------------------------------
  alpha Z        PSCENC =         0.24147854
  Ewald energy   TEWEN  =       128.73289380
  -Hartree energ DENC   =      -284.52532633
  -exchange      EXHF   =         0.00000000
  -V(xc)+E(xc)   XCENC  =        24.73557784
  PAW double counting   =       466.15692615     -466.94396916
  entropy T*S    EENTRO =        -0.00000000
  eigenvalues    EBANDS =       -89.45832045
  atomic energy  EATOM  =       197.04175453
  Solvation  Ediel_sol  =         0.00000000
  ---------------------------------------------------
  free energy    TOTEN  =       -24.01898508 eV

  energy without entropy =      -24.01898508  energy(sigma->0) =      -24.01898508


--------------------------------------------------------------------------------------------------------




--------------------------------------- Iteration      1(  21)  ---------------------------------------


    POTLOK:  cpu time    0.1532: real time    0.1538
    SETDIJ:  cpu time    0.0026: real time    0.0026
    EDDIAG:  cpu time    0.0434: real time    0.0441
  RMM-DIIS:  cpu time    0.1161: real time    0.1177
    ORTHCH:  cpu time    0.0015: real time    0.0016
       DOS:  cpu time    0.0002: real time    0.0002
    --------------------------------------------
      LOOP:  cpu time    0.3169: real time    0.3199

 eigenvalue-minimisations  :    32
 total energy-change (2. order) :-0.1820437E-06  ( 0.0000000E+00)
 number of electron       8.0000000 magnetization 
 augmentation part        0.1851292 magnetization 

 Free energy of the ion-electron system (eV)
  ---------------------------------------------------
  alpha Z        PSCENC =         0.24147854
  Ewald energy   TEWEN  =       128.73289380
  -Hartree energ DENC   =      -284.52518417
  -exchange      EXHF   =         0.00000000
  -V(xc)+E(xc)   XCENC  =        24.73557420
  PAW double counting   =       466.15884058     -466.94588310
  entropy T*S    EENTRO =        -0.00000000
  eigenvalues    EBANDS =       -89.45845965
  atomic energy  EATOM  =       197.04175453
  Solvation  Ediel_sol  =         0.00000000
  ---------------------------------------------------
  free energy    TOTEN  =       -24.01898526 eV

  energy without entropy =      -24.01898526  energy(sigma->0) =      -24.01898526


--------------------------------------------------------------------------------------------------------




 average (electrostatic) potential at core
  the test charge radii are     0.5201  0.6991
  (the norm of the test charge is              1.0000)
       1 -41.4325       2 -41.5991       3 -41.4426       4 -41.4881       5 -57.9651
 
 
 
 E-fermi :  -8.1542     XC(G=0):  -0.6978     alpha+bet : -0.2100


 k-point     1 :       0.2500    0.2500    0.2500
  band No.  band energies     occupation 
      1     -16.8793      2.00000
      2      -9.4097      2.00000
      3      -9.3118      2.00000
      4      -9.1284      2.00000
      5      -0.3206      0.00000
      6       0.5716      0.00000
      7       0.6820      0.00000
      8       0.7149      0.00000

 k-point     2 :      -0.2500    0.2500    0.2500
  band No.  band energies     occupation 
      1     -16.8793      2.00000
      2      -9.4096      2.00000
      3      -9.3118      2.00000
      4      -9.1284      2.00000
      5      -0.3157      0.00000
      6       0.5617      0.00000
      7       0.6633      0.00000
      8       0.7028      0.00000

 k-point     3 :       0.2500   -0.2500    0.2500
  band No.  band energies     occupation 
      1     -16.8793      2.00000
      2      -9.4096      2.00000
      3      -9.3118      2.00000
      4      -9.1285      2.00000
      5      -0.3117      0.00000
      6       0.5534      0.00000
      7       0.6571      0.00000
      8       0.6903      0.00000

 k-point     4 :      -0.2500   -0.2500    0.2500
  band No.  band energies     occupation 
      1     -16.8794      2.00000
      2      -9.4097      2.00000
      3      -9.3118      2.00000
      4      -9.1285      2.00000
      5      -0.3141      0.00000
      6       0.5542      0.00000
      7       0.6703      0.00000
      8       0.6968      0.00000


--------------------------------------------------------------------------------------------------------


 soft charge-density along one line, spin component           1
         0         1         2         3         4         5         6         7         8         9
 total charge-density along one line
 
 pseudopotential strength for first ion, spin component:           1
 -2.340  -4.033  -0.001  -0.001   0.001
 -4.033  -6.863  -0.003  -0.004   0.002
 -0.001  -0.003  -0.338   0.002  -0.001
 -0.001  -0.004   0.002  -0.336  -0.001
  0.001   0.002  -0.001  -0.001  -0.339
 total augmentation occupancy for first ion, spin component:           1
  3.510  -0.633   0.232   0.326  -0.125
 -0.633   0.128  -0.043  -0.060   0.024
  0.232  -0.043   0.021   0.018  -0.007
  0.326  -0.060   0.018   0.034  -0.010
 -0.125   0.024  -0.007  -0.010   0.012


------------------------ aborting loop because EDIFF is reached ----------------------------------------


    CHARGE:  cpu time    0.0203: real time    0.0203
    FORLOC:  cpu time    0.0153: real time    0.0153
    FORNL :  cpu time    0.0210: real time    0.0213
    STRESS:  cpu time    0.1686: real time    0.1712
    FORCOR:  cpu time    0.1545: real time    0.1563
    FORHAR:  cpu time    0.0491: real time    0.0491
    MIXING:  cpu time    0.0072: real time    0.0072
    OFIELD:  cpu time    0.0000: real time    0.0000

  FORCE on cell =-STRESS in cart. coord.  units (eV):
  Direction    XX          YY          ZZ          XY          YZ          ZX
  --------------------------------------------------------------------------------------
  Alpha Z     0.24148     0.24148     0.24148
  Ewald      44.54291    41.55871    42.63125     2.08671     1.55252     0.81356
  Hartree    95.44992    95.56283    93.51302     0.85569     0.76814     0.21749
  E(xc)     -27.20438   -27.21511   -27.19216     0.01126     0.00813     0.00267
  Local    -198.36795  -196.48821  -194.71549    -2.67916    -2.17643    -0.85182
  n-local   -15.92721   -15.86325   -15.85832     0.01110     0.02111    -0.01194
  augment     0.11219     0.12105     0.11533    -0.00155    -0.00063    -0.00154
  Kinetic   101.13976   101.63693   100.52831    -0.53629    -0.42038    -0.11862
  Fock        0.00000     0.00000     0.00000     0.00000     0.00000     0.00000
  -------------------------------------------------------------------------------------
  Total      -0.01327    -0.44557    -0.73659    -0.25224    -0.24753     0.04979
  in kB      -0.02120    -0.71161    -1.17639    -0.40284    -0.39532     0.07953
  external pressure =       -0.64 kB  Pullay stress =        0.00 kB

  kinetic pressure (ideal gas correction) =      0.00 kB
  total pressure  =     -0.64 kB
  Total+kin.    -0.021      -0.712      -1.176      -0.403      -0.395       0.080

 VOLUME and BASIS-vectors are now :
 -----------------------------------------------------------------------------
  energy-cutoff  :      400.00
  volume of cell :     1003.20
      direct lattice vectors                 reciprocal lattice vectors
     9.960224087  0.000000000  0.000000000     0.100399348 -0.001986504 -0.000599409
     0.196034610  9.907728539  0.000000000     0.000000000  0.100931308 -0.002819524
     0.066311571  0.283983710 10.165844364     0.000000000  0.000000000  0.098368612

  length of vectors
     9.960224087  9.909667723 10.170026332     0.100420787  0.100970682  0.098368612


 FORCES acting on ions
    electron-ion (+dipol)            ewald-force                    non-local-force                 convergence-correction
 -----------------------------------------------------------------------------------------------
   -.157E+02 0.291E+02 0.407E+02   0.173E+02 -.320E+02 -.446E+02   -.159E+01 0.296E+01 0.418E+01   0.102E-05 -.133E-07 -.139E-04
   0.529E+02 -.626E+01 0.314E+01   -.590E+02 0.708E+01 -.349E+01   0.565E+01 -.642E+00 0.333E+00   -.362E-05 0.330E-05 0.178E-05
   -.245E+02 -.464E+02 0.129E+01   0.269E+02 0.511E+02 -.150E+01   -.255E+01 -.477E+01 0.105E+00   -.384E-05 -.142E-05 0.901E-06
   -.119E+02 0.231E+02 -.460E+02   0.131E+02 -.256E+02 0.507E+02   -.123E+01 0.235E+01 -.480E+01   -.212E-05 0.246E-05 0.142E-04
   -.133E+01 0.584E+00 0.106E+01   0.164E+01 -.630E+00 -.120E+01   0.255E+00 0.501E-01 0.219E-01   -.112E-04 0.201E-04 0.185E-04
 -----------------------------------------------------------------------------------------------
   -.542E+00 0.416E-01 0.160E+00   -.178E-14 0.000E+00 0.000E+00   0.542E+00 -.419E-01 -.160E+00   -.197E-04 0.245E-04 0.215E-04
 
 
 POSITION                                       TOTAL-FORCE (eV/Angst)
 -----------------------------------------------------------------------------------
      5.45933      4.13913      3.66707         0.010481      0.095950      0.319610
      4.05343      4.88030      4.46239        -0.425932      0.175768     -0.015874
      5.64252      5.72817      4.49950        -0.184646     -0.109696     -0.097223
      5.37446      4.27496      5.48165         0.029187     -0.165651     -0.092168
      5.12772      4.75301      4.52528         0.570588      0.003332     -0.114211
 -----------------------------------------------------------------------------------
    total drift:                               -0.000321     -0.000297      0.000133


--------------------------------------------------------------------------------------------------------



  FREE ENERGIE OF THE ION-ELECTRON SYSTEM (eV)
  ---------------------------------------------------
  free  energy   TOTEN  =       -24.01898526 eV

  energy  without entropy=      -24.01898526  energy(sigma->0) =      -24.01898526
 


--------------------------------------------------------------------------------------------------------


    POTLOK:  cpu time    0.1545: real time    0.1545


--------------------------------------------------------------------------------------------------------


           RANDOM_SEED =         172325750                0                0
           RANDOM_SEED =         172325750               30                0
   IONSTEP:  cpu time    0.0029: real time    0.0029

  ENERGY OF THE ELECTRON-ION-THERMOSTAT SYSTEM (eV)
  ---------------------------------------------------
% ion-electron   TOTEN  =       -24.018985  see above
  kinetic energy EKIN   =         0.000136
  kin. lattice  EKIN_LAT=         0.000000  (temperature    0.26 K)
  nose potential ES     =         0.000000
  nose kinetic   EPS    =         0.000000
  ---------------------------------------------------
  total energy   ETOTAL =       -24.018849 eV

  maximum distance moved by ions :      0.11E-03

    WAVPRE:  cpu time    0.0450: real time    0.0452
    FEWALD:  cpu time    0.0004: real time    0.0004
    ORTHCH:  cpu time    0.0093: real time    0.0093
     LOOP+:  cpu time    8.0416: real time    8.0570


--------------------------------------- Iteration      2(   1)  ---------------------------------------


    POTLOK:  cpu time    0.1548: real time    0.1549
    SETDIJ:  cpu time    0.0022: real time    0.0022
     EDDAV:  cpu time    0.1745: real time    0.1746
       DOS:  cpu time    0.0002: real time    0.0002
    CHARGE:  cpu time    0.0201: real time    0.0201
    MIXING:  cpu time    0.0068: real time    0.0068
    --------------------------------------------
      LOOP:  cpu time    0.3586: real time    0.3588

 eigenvalue-minimisations  :    72
 total energy-change (2. order) :-0.1037036E-02  (-0.1083271E-03)
 number of electron       8.0000000 magnetization 
 augmentation part        0.1851297 magnetization 

 Broyden mixing:
  rms(total) = 0.13201E-02    rms(broyden)= 0.13190E-02
  rms(prec ) = 0.15217E-02
  weight for this iteration     100.00

 Free energy of the ion-electron system (eV)
  ---------------------------------------------------
  alpha Z        PSCENC =         0.24147854
  Ewald energy   TEWEN  =       128.73458350
  -Hartree energ DENC   =      -284.52806587
  -exchange      EXHF   =         0.00000000
  -V(xc)+E(xc)   XCENC  =        24.73575073
  PAW double counting   =       466.16593089     -466.95296681
  entropy T*S    EENTRO =        -0.00000000
  eigenvalues    EBANDS =       -89.45848762
  atomic energy  EATOM  =       197.04175453
  Solvation  Ediel_sol  =         0.00000000
  ---------------------------------------------------
  free energy    TOTEN  =       -24.02002211 eV

  energy without entropy =      -24.02002211  energy(sigma->0) =      -24.02002211


--------------------------------------------------------------------------------------------------------




--------------------------------------- Iteration      2(   2)  ---------------------------------------


    POTLOK:  cpu time    0.1576: real time    0.1577
    SETDIJ:  cpu time    0.0019: real time    0.0025
    EDDIAG:  cpu time    0.0423: real time    0.0423
  RMM-DIIS:  cpu time    0.1742: real time    0.1744
    ORTHCH:  cpu time    0.0016: real time    0.0016
       DOS:  cpu time    0.0002: real time    0.0002
    CHARGE:  cpu time    0.0210: real time    0.0210
    MIXING:  cpu time    0.0051: real time    0.0051
    --------------------------------------------
      LOOP:  cpu time    0.4040: real time    0.4049

 eigenvalue-minimisations  :    64
 total energy-change (2. order) :-0.5720534E-06  (-0.3061215E-05)
 number of electron       8.0000000 magnetization 
 augmentation part        0.1851308 magnetization 

 Broyden mixing:
  rms(total) = 0.88212E-03    rms(broyden)= 0.88174E-03
  rms(prec ) = 0.10196E-02
  weight for this iteration     100.00

 eigenvalues of (default mixing * dielectric matrix)
  average eigenvalue GAMMA=   1.9567
  1.9567

 Free energy of the ion-electron system (eV)
  ---------------------------------------------------
  alpha Z        PSCENC =         0.24147854
  Ewald energy   TEWEN  =       128.73458350
  -Hartree energ DENC   =      -284.52821315
  -exchange      EXHF   =         0.00000000
  -V(xc)+E(xc)   XCENC  =        24.73574649
  PAW double counting   =       466.12175436     -466.90878998
  entropy T*S    EENTRO =        -0.00000000
  eigenvalues    EBANDS =       -89.45833697
  atomic energy  EATOM  =       197.04175453
  Solvation  Ediel_sol  =         0.00000000
  ---------------------------------------------------
  free energy    TOTEN  =       -24.02002269 eV

  energy without entropy =      -24.02002269  energy(sigma->0) =      -24.02002269


--------------------------------------------------------------------------------------------------------




--------------------------------------- Iteration      2(   3)  ---------------------------------------


    POTLOK:  cpu time    0.1565: real time    0.1566
    SETDIJ:  cpu time    0.0025: real time    0.0025
    EDDIAG:  cpu time    0.0430: real time    0.0430
  RMM-DIIS:  cpu time    0.1731: real time    0.1731
    ORTHCH:  cpu time    0.0016: real time    0.0016
       DOS:  cpu time    0.0002: real time    0.0002
    CHARGE:  cpu time    0.0203: real time    0.0203
    MIXING:  cpu time    0.0051: real time    0.0051
    --------------------------------------------
      LOOP:  cpu time    0.4023: real time    0.4024

 eigenvalue-minimisations  :    64
 total energy-change (2. order) : 0.1860727E-06  (-0.3899926E-06)
 number of electron       8.0000000 magnetization 
 augmentation part        0.1851299 magnetization 

 Broyden mixing:
  rms(total) = 0.15213E-03    rms(broyden)= 0.15178E-03
  rms(prec ) = 0.18615E-03
  weight for this iteration     100.00

 eigenvalues of (default mixing * dielectric matrix)
  average eigenvalue GAMMA=   1.6700
  1.0452  2.2948

 Free energy of the ion-electron system (eV)
  ---------------------------------------------------
  alpha Z        PSCENC =         0.24147854
  Ewald energy   TEWEN  =       128.73458350
  -Hartree energ DENC   =      -284.52908098
  -exchange      EXHF   =         0.00000000
  -V(xc)+E(xc)   XCENC  =        24.73577625
  PAW double counting   =       466.12672289     -466.91376648
  entropy T*S    EENTRO =        -0.00000000
  eigenvalues    EBANDS =       -89.45749075
  atomic energy  EATOM  =       197.04175453
  Solvation  Ediel_sol  =         0.00000000
  ---------------------------------------------------
  free energy    TOTEN  =       -24.02002250 eV

  energy without entropy =      -24.02002250  energy(sigma->0) =      -24.02002250


--------------------------------------------------------------------------------------------------------




--------------------------------------- Iteration      2(   4)  ---------------------------------------


    POTLOK:  cpu time    0.1583: real time    0.1585
    SETDIJ:  cpu time    0.0021: real time    0.0021
    EDDIAG:  cpu time    0.0423: real time    0.0423
  RMM-DIIS:  cpu time    0.1368: real time    0.1368
    ORTHCH:  cpu time    0.0018: real time    0.0018
       DOS:  cpu time    0.0002: real time    0.0002
    --------------------------------------------
      LOOP:  cpu time    0.3414: real time    0.3416

 eigenvalue-minimisations  :    48
 total energy-change (2. order) : 0.1847087E-07  (-0.1210661E-07)
 number of electron       8.0000000 magnetization 
 augmentation part        0.1851299 magnetization 

 Free energy of the ion-electron system (eV)
  ---------------------------------------------------
  alpha Z        PSCENC =         0.24147854
  Ewald energy   TEWEN  =       128.73458350
  -Hartree energ DENC   =      -284.52893128
  -exchange      EXHF   =         0.00000000
  -V(xc)+E(xc)   XCENC  =        24.73576865
  PAW double counting   =       466.13639508     -466.92343609
  entropy T*S    EENTRO =        -0.00000000
  eigenvalues    EBANDS =       -89.45763541
  atomic energy  EATOM  =       197.04175453
  Solvation  Ediel_sol  =         0.00000000
  ---------------------------------------------------
  free energy    TOTEN  =       -24.02002248 eV

  energy without entropy =      -24.02002248  energy(sigma->0) =      -24.02002248


--------------------------------------------------------------------------------------------------------




 average (electrostatic) potential at core
  the test charge radii are     0.5201  0.6991
  (the norm of the test charge is              1.0000)
       1 -41.4376       2 -41.5895       3 -41.4460       4 -41.4879       5 -57.9647
 
 
 
 E-fermi :  -8.1545     XC(G=0):  -0.6973     alpha+bet : -0.2100


 k-point     1 :       0.2500    0.2500    0.2500
  band No.  band energies     occupation 
      1     -16.8791      2.00000
      2      -9.4063      2.00000
      3      -9.3114      2.00000
      4      -9.1320      2.00000
      5      -0.3204      0.00000
      6       0.5746      0.00000
      7       0.6818      0.00000
      8       0.7140      0.00000

 k-point     2 :      -0.2500    0.2500    0.2500
  band No.  band energies     occupation 
      1     -16.8791      2.00000
      2      -9.4062      2.00000
      3      -9.3114      2.00000
      4      -9.1320      2.00000
      5      -0.3154      0.00000
      6       0.5624      0.00000
      7       0.6649      0.00000
      8       0.7022      0.00000

 k-point     3 :       0.2500   -0.2500    0.2500
  band No.  band energies     occupation 
      1     -16.8791      2.00000
      2      -9.4063      2.00000
      3      -9.3114      2.00000
      4      -9.1321      2.00000
      5      -0.3114      0.00000
      6       0.5538      0.00000
      7       0.6582      0.00000
      8       0.6905      0.00000

 k-point     4 :      -0.2500   -0.2500    0.2500
  band No.  band energies     occupation 
      1     -16.8791      2.00000
      2      -9.4063      2.00000
      3      -9.3114      2.00000
      4      -9.1321      2.00000
      5      -0.3139      0.00000
      6       0.5578      0.00000
      7       0.6691      0.00000
      8       0.6969      0.00000


--------------------------------------------------------------------------------------------------------


 soft charge-density along one line, spin component           1
         0         1         2         3         4         5         6         7         8         9
 total charge-density along one line
 
 pseudopotential strength for first ion, spin component:           1
 -2.341  -4.033  -0.001  -0.001   0.001
 -4.033  -6.863  -0.003  -0.004   0.002
 -0.001  -0.003  -0.338   0.002  -0.001
 -0.001  -0.004   0.002  -0.336  -0.001
  0.001   0.002  -0.001  -0.001  -0.339
 total augmentation occupancy for first ion, spin component:           1
  3.513  -0.633   0.233   0.327  -0.125
 -0.633   0.128  -0.043  -0.060   0.024
  0.233  -0.043   0.022   0.018  -0.007
  0.327  -0.060   0.018   0.034  -0.010
 -0.125   0.024  -0.007  -0.010   0.012


------------------------ aborting loop because EDIFF is reached ----------------------------------------


    CHARGE:  cpu time    0.0208: real time    0.0208
    FORLOC:  cpu time    0.0154: real time    0.0154
    FORNL :  cpu time    0.0221: real time    0.0221
    STRESS:  cpu time    0.2083: real time    0.2090
    FORCOR:  cpu time    0.1561: real time    0.1561
    FORHAR:  cpu time    0.0528: real time    0.0528
    MIXING:  cpu time    0.0063: real time    0.0063
    OFIELD:  cpu time    0.0000: real time    0.0000

  FORCE on cell =-STRESS in cart. coord.  units (eV):
  Direction    XX          YY          ZZ          XY          YZ          ZX
  --------------------------------------------------------------------------------------
  Alpha Z     0.24148     0.24148     0.24148
  Ewald      44.48505    41.63483    42.61468     2.05770     1.54430     0.78742
  Hartree    95.46286    95.56926    93.49650     0.84197     0.75766     0.21656
  E(xc)     -27.20439   -27.21518   -27.19267     0.01099     0.00793     0.00266
  Local    -198.35408  -196.54656  -194.67644    -2.63735    -2.15325    -0.83394
  n-local   -15.92353   -15.86547   -15.86013     0.01023     0.01981    -0.01099
  augment     0.11253     0.12081     0.11523    -0.00157    -0.00069    -0.00145
  Kinetic   101.12993   101.63223   100.54374    -0.52310    -0.40983    -0.11820
  Fock        0.00000     0.00000     0.00000     0.00000     0.00000     0.00000
  -------------------------------------------------------------------------------------
  Total      -0.05014    -0.42860    -0.71762    -0.24113    -0.23407     0.04204
  in kB      -0.08007    -0.68451    -1.14608    -0.38510    -0.37383     0.06714
  external pressure =       -0.64 kB  Pullay stress =        0.00 kB

  kinetic pressure (ideal gas correction) =      0.00 kB
  total pressure  =     -0.64 kB
  Total+kin.    -0.079      -0.684      -1.146      -0.385      -0.374       0.067

 VOLUME and BASIS-vectors are now :
 -----------------------------------------------------------------------------
  energy-cutoff  :      400.00
[...]
 -----------------------------------------------------------------------------------------------
   0.429E+00 -.480E-01 -.158E+00   0.000E+00 -.352E-14 0.711E-14   -.430E+00 0.477E-01 0.159E+00   0.307E-03 0.485E-04 -.559E-04
 
 
 POSITION                                       TOTAL-FORCE (eV/Angst)
 -----------------------------------------------------------------------------------
      5.46208      4.14236      3.68609         0.095069     -0.159917     -0.149759
      4.03248      4.89231      4.46192         0.346260     -0.004346      0.023001
      5.63025      5.72392      4.49193         0.022446      0.153048     -0.041488
      5.37647      4.26216      5.47459        -0.001196     -0.062325     -0.032081
      5.13009      4.75317      4.52496        -0.462981      0.073295      0.200648
 -----------------------------------------------------------------------------------
    total drift:                               -0.000402     -0.000246      0.000322


--------------------------------------------------------------------------------------------------------



  FREE ENERGIE OF THE ION-ELECTRON SYSTEM (eV)
  ---------------------------------------------------
  free  energy   TOTEN  =       -24.02583649 eV

  energy  without entropy=      -24.02583649  energy(sigma->0) =      -24.02583649
 
 d Force =-0.7626238E-03[-0.107E-02,-0.456E-03]  d Energy =-0.7611723E-03-0.145E-05
 d Force =-0.2832742E-01[-0.284E-01,-0.283E-01]  d Ewald  =-0.2832786E-01 0.443E-06


--------------------------------------------------------------------------------------------------------


    POTLOK:  cpu time    0.1592: real time    0.1611


--------------------------------------------------------------------------------------------------------


           RANDOM_SEED =         172325750               30                0
   IONSTEP:  cpu time    0.0001: real time    0.0001

  ENERGY OF THE ELECTRON-ION-THERMOSTAT SYSTEM (eV)
  ---------------------------------------------------
% ion-electron   TOTEN  =       -24.025836  see above
  kinetic energy EKIN   =         0.006922
  kin. lattice  EKIN_LAT=         0.000000  (temperature   13.39 K)
  nose potential ES     =         0.000000
  nose kinetic   EPS    =         0.000000
  ---------------------------------------------------
  total energy   ETOTAL =       -24.018914 eV

  maximum distance moved by ions :      0.31E-03

    WAVPRE:  cpu time    0.0508: real time    0.0513
    FEWALD:  cpu time    0.0008: real time    0.0008
    ORTHCH:  cpu time    0.0092: real time    0.0092
 Prediction of Wavefunctions ALPHA= 2.165 BETA=-1.201
     LOOP+:  cpu time    2.0692: real time    2.0862


--------------------------------------- Iteration     10(   1)  ---------------------------------------


    POTLOK:  cpu time    0.1555: real time    0.1564
    SETDIJ:  cpu time    0.0023: real time    0.0023
     EDDAV:  cpu time    0.1607: real time    0.1619
       DOS:  cpu time    0.0002: real time    0.0002
    CHARGE:  cpu time    0.0199: real time    0.0200
    MIXING:  cpu time    0.0048: real time    0.0048
    --------------------------------------------
      LOOP:  cpu time    0.3434: real time    0.3457

 eigenvalue-minimisations  :    64
 total energy-change (2. order) : 0.7223158E-03  (-0.1124319E-04)
 number of electron       8.0000003 magnetization 
 augmentation part        0.1853187 magnetization 

 Broyden mixing:
  rms(total) = 0.10714E-03    rms(broyden)= 0.10694E-03
  rms(prec ) = 0.14649E-03
  weight for this iteration     100.00

 Free energy of the ion-electron system (eV)
  ---------------------------------------------------
  alpha Z        PSCENC =         0.24147854
  Ewald energy   TEWEN  =       128.90233490
  -Hartree energ DENC   =      -284.68446482
  -exchange      EXHF   =         0.00000000
  -V(xc)+E(xc)   XCENC  =        24.74422978
  PAW double counting   =       467.24604788     -468.03374067
  entropy T*S    EENTRO =        -0.00000000
  eigenvalues    EBANDS =       -89.48275423
  atomic energy  EATOM  =       197.04175453
  Solvation  Ediel_sol  =         0.00000000
  ---------------------------------------------------
  free energy    TOTEN  =       -24.02511409 eV

  energy without entropy =      -24.02511409  energy(sigma->0) =      -24.02511409


--------------------------------------------------------------------------------------------------------




--------------------------------------- Iteration     10(   2)  ---------------------------------------


    POTLOK:  cpu time    0.1491: real time    0.1503
    SETDIJ:  cpu time    0.0023: real time    0.0023
    EDDIAG:  cpu time    0.0426: real time    0.0431
  RMM-DIIS:  cpu time    0.1555: real time    0.1566
    ORTHCH:  cpu time    0.0016: real time    0.0016
       DOS:  cpu time    0.0002: real time    0.0002
    CHARGE:  cpu time    0.0202: real time    0.0203
    MIXING:  cpu time    0.0051: real time    0.0051
    --------------------------------------------
      LOOP:  cpu time    0.3764: real time    0.3794

 eigenvalue-minimisations  :    52
 total energy-change (2. order) :-0.6924379E-06  (-0.2037286E-06)
 number of electron       8.0000003 magnetization 
 augmentation part        0.1853227 magnetization 

 Broyden mixing:
  rms(total) = 0.98809E-04    rms(broyden)= 0.98761E-04
  rms(prec ) = 0.13574E-03
  weight for this iteration     100.00

 eigenvalues of (default mixing * dielectric matrix)
  average eigenvalue GAMMA=   0.6049
  0.6049

 Free energy of the ion-electron system (eV)
  ---------------------------------------------------
  alpha Z        PSCENC =         0.24147854
  Ewald energy   TEWEN  =       128.90233490
  -Hartree energ DENC   =      -284.68268869
  -exchange      EXHF   =         0.00000000
  -V(xc)+E(xc)   XCENC  =        24.74412901
  PAW double counting   =       467.23447896     -468.02213475
  entropy T*S    EENTRO =        -0.00000000
  eigenvalues    EBANDS =       -89.48446728
  atomic energy  EATOM  =       197.04175453
  Solvation  Ediel_sol  =         0.00000000
  ---------------------------------------------------
  free energy    TOTEN  =       -24.02511478 eV

  energy without entropy =      -24.02511478  energy(sigma->0) =      -24.02511478


--------------------------------------------------------------------------------------------------------




--------------------------------------- Iteration     10(   3)  ---------------------------------------


    POTLOK:  cpu time    0.1507: real time    0.1518
    SETDIJ:  cpu time    0.0027: real time    0.0027
    EDDIAG:  cpu time    0.0419: real time    0.0422
  RMM-DIIS:  cpu time    0.1380: real time    0.1390
    ORTHCH:  cpu time    0.0016: real time    0.0016
       DOS:  cpu time    0.0003: real time    0.0003
    CHARGE:  cpu time    0.0207: real time    0.0208
    MIXING:  cpu time    0.0054: real time    0.0055
    --------------------------------------------
      LOOP:  cpu time    0.3612: real time    0.3639

 eigenvalue-minimisations  :    48
 total energy-change (2. order) :-0.2948395E-06  (-0.1664453E-07)
 number of electron       8.0000003 magnetization 
 augmentation part        0.1853240 magnetization 

 Broyden mixing:
  rms(total) = 0.77068E-04    rms(broyden)= 0.77059E-04
  rms(prec ) = 0.10591E-03
  weight for this iteration     100.00

 eigenvalues of (default mixing * dielectric matrix)
  average eigenvalue GAMMA=   1.5363
  1.5363  1.5363

 Free energy of the ion-electron system (eV)
  ---------------------------------------------------
  alpha Z        PSCENC =         0.24147854
  Ewald energy   TEWEN  =       128.90233490
  -Hartree energ DENC   =      -284.68174026
  -exchange      EXHF   =         0.00000000
  -V(xc)+E(xc)   XCENC  =        24.74408733
  PAW double counting   =       467.22649250     -468.01413731
  entropy T*S    EENTRO =        -0.00000000
  eigenvalues    EBANDS =       -89.48538530
  atomic energy  EATOM  =       197.04175453
  Solvation  Ediel_sol  =         0.00000000
  ---------------------------------------------------
  free energy    TOTEN  =       -24.02511507 eV

  energy without entropy =      -24.02511507  energy(sigma->0) =      -24.02511507


--------------------------------------------------------------------------------------------------------




--------------------------------------- Iteration     10(   4)  ---------------------------------------


    POTLOK:  cpu time    0.1524: real time    0.1534
    SETDIJ:  cpu time    0.0022: real time    0.0022
    EDDIAG:  cpu time    0.0426: real time    0.0429
  RMM-DIIS:  cpu time    0.1357: real time    0.1387
    ORTHCH:  cpu time    0.0016: real time    0.0016
       DOS:  cpu time    0.0002: real time    0.0002
    --------------------------------------------
      LOOP:  cpu time    0.3346: real time    0.3389

 eigenvalue-minimisations  :    48
 total energy-change (2. order) :-0.9175141E-06  (-0.1829136E-07)
 number of electron       8.0000003 magnetization 
 augmentation part        0.1853240 magnetization 

 Free energy of the ion-electron system (eV)
  ---------------------------------------------------
  alpha Z        PSCENC =         0.24147854
  Ewald energy   TEWEN  =       128.90233490
  -Hartree energ DENC   =      -284.67997167
  -exchange      EXHF   =         0.00000000
  -V(xc)+E(xc)   XCENC  =        24.74402337
  PAW double counting   =       467.20765493     -467.99528376
  entropy T*S    EENTRO =        -0.00000000
  eigenvalues    EBANDS =       -89.48710683
  atomic energy  EATOM  =       197.04175453
  Solvation  Ediel_sol  =         0.00000000
  ---------------------------------------------------
  free energy    TOTEN  =       -24.02511599 eV

  energy without entropy =      -24.02511599  energy(sigma->0) =      -24.02511599


--------------------------------------------------------------------------------------------------------




 average (electrostatic) potential at core
  the test charge radii are     0.5201  0.6991
  (the norm of the test charge is              1.0000)
       1 -41.5650       2 -41.3897       3 -41.5314       4 -41.4887       5 -57.9603
 
 
 
 E-fermi :  -8.2995     XC(G=0):  -0.6965     alpha+bet : -0.2100


 k-point     1 :       0.2500    0.2500    0.2500
  band No.  band energies     occupation 
      1     -16.8836      2.00000
      2      -9.3446      2.00000
      3      -9.2865      2.00000
      4      -9.2287      2.00000
      5      -0.3183      0.00000
      6       0.5750      0.00000
      7       0.6831      0.00000
      8       0.7164      0.00000

 k-point     2 :      -0.2500    0.2500    0.2500
  band No.  band energies     occupation 
      1     -16.8836      2.00000
      2      -9.3446      2.00000
      3      -9.2865      2.00000
      4      -9.2287      2.00000
      5      -0.3133      0.00000
      6       0.5624      0.00000
      7       0.6673      0.00000
      8       0.7050      0.00000

 k-point     3 :       0.2500   -0.2500    0.2500
  band No.  band energies     occupation 
      1     -16.8836      2.00000
      2      -9.3446      2.00000
      3      -9.2865      2.00000
      4      -9.2288      2.00000
      5      -0.3089      0.00000
      6       0.5518      0.00000
      7       0.6612      0.00000
      8       0.6925      0.00000

 k-point     4 :      -0.2500   -0.2500    0.2500
  band No.  band energies     occupation 
      1     -16.8837      2.00000
      2      -9.3446      2.00000
      3      -9.2865      2.00000
      4      -9.2289      2.00000
      5      -0.3117      0.00000
      6       0.5556      0.00000
      7       0.6746      0.00000
      8       0.6978      0.00000


--------------------------------------------------------------------------------------------------------


 soft charge-density along one line, spin component           1
         0         1         2         3         4         5         6         7         8         9
 total charge-density along one line
 
 pseudopotential strength for first ion, spin component:           1
 -2.342  -4.035  -0.001  -0.001   0.001
 -4.035  -6.867  -0.003  -0.004   0.002
 -0.001  -0.003  -0.337   0.002  -0.001
 -0.001  -0.004   0.002  -0.335  -0.001
  0.001   0.002  -0.001  -0.001  -0.338
 total augmentation occupancy for first ion, spin component:           1
  3.578  -0.643   0.248   0.339  -0.135
 -0.643   0.130  -0.046  -0.062   0.025
  0.248  -0.046   0.024   0.020  -0.008
  0.339  -0.062   0.020   0.036  -0.011
 -0.135   0.025  -0.008  -0.011   0.014


------------------------ aborting loop because EDIFF is reached ----------------------------------------


    CHARGE:  cpu time    0.0206: real time    0.0208
    FORLOC:  cpu time    0.0156: real time    0.0157
    FORNL :  cpu time    0.0222: real time    0.0222
    STRESS:  cpu time    0.1717: real time    0.1731
    FORCOR:  cpu time    0.1553: real time    0.1560
    FORHAR:  cpu time    0.0511: real time    0.0520
    MIXING:  cpu time    0.0055: real time    0.0055
    OFIELD:  cpu time    0.0001: real time    0.0001

  FORCE on cell =-STRESS in cart. coord.  units (eV):
  Direction    XX          YY          ZZ          XY          YZ          ZX
  --------------------------------------------------------------------------------------
  Alpha Z     0.24148     0.24148     0.24148
  Ewald      43.15671    44.09646    41.64915     0.78891     0.94668     0.01055
  Hartree    95.72070    95.96416    92.99601     0.36726     0.41450     0.13802
  E(xc)     -27.21036   -27.21734   -27.21161     0.00165     0.00119     0.00110
  Local    -197.94021  -198.73697  -193.19184    -1.02805    -1.18398    -0.21801
  n-local   -15.85948   -15.92636   -15.91634    -0.00896    -0.01164     0.01002
  augment     0.11912     0.11475     0.11380    -0.00111    -0.00165     0.00079
  Kinetic   101.00954   101.36719   101.08252    -0.07289    -0.06263    -0.05242
  Fock        0.00000     0.00000     0.00000     0.00000     0.00000     0.00000
  -------------------------------------------------------------------------------------
  Total      -0.76250    -0.09664    -0.23686     0.04681     0.10246    -0.10995
  in kB      -1.21777    -0.15434    -0.37829     0.07475     0.16364    -0.17559
  external pressure =       -0.58 kB  Pullay stress =        0.00 kB

  kinetic pressure (ideal gas correction) =      0.01 kB
  total pressure  =     -0.58 kB
  Total+kin.    -1.212      -0.146      -0.371       0.071       0.166      -0.172

 VOLUME and BASIS-vectors are now :
 -----------------------------------------------------------------------------
  energy-cutoff  :      400.00
  volume of cell :     1003.20
      direct lattice vectors                 reciprocal lattice vectors
     9.960224087  0.000000000  0.000000000     0.100399348 -0.001986504 -0.000599409
     0.196034610  9.907728539  0.000000000     0.000000000  0.100931308 -0.002819524
     0.066311571  0.283983710 10.165844364     0.000000000  0.000000000  0.098368612

  length of vectors
     9.960224087  9.909667723 10.170026332     0.100420787  0.100970682  0.098368612


 FORCES acting on ions
    electron-ion (+dipol)            ewald-force                    non-local-force                 convergence-correction
 -----------------------------------------------------------------------------------------------
   -.163E+02 0.299E+02 0.409E+02   0.181E+02 -.332E+02 -.455E+02   -.172E+01 0.316E+01 0.433E+01   -.844E-05 -.422E-04 -.673E-04
   0.517E+02 -.665E+01 0.299E+01   -.566E+02 0.729E+01 -.326E+01   0.525E+01 -.670E+00 0.300E+00   -.122E-03 0.155E-04 0.184E-04
   -.242E+02 -.472E+02 0.172E+01   0.268E+02 0.523E+02 -.192E+01   -.255E+01 -.495E+01 0.171E+00   0.136E-05 0.812E-04 0.185E-04
   -.119E+02 0.238E+02 -.457E+02   0.131E+02 -.263E+02 0.504E+02   -.123E+01 0.246E+01 -.475E+01   -.220E-04 -.335E-04 0.123E-03
   0.114E+01 0.689E-01 -.136E+00   -.142E+01 -.506E-01 0.225E+00   -.258E+00 0.575E-01 0.134E+00   -.167E-03 0.314E-04 0.992E-04
 -----------------------------------------------------------------------------------------------
   0.504E+00 -.546E-01 -.184E+00   -.178E-14 -.353E-14 -.142E-13   -.504E+00 0.543E-01 0.184E+00   -.318E-03 0.524E-04 0.192E-03
 
 
 POSITION                                       TOTAL-FORCE (eV/Angst)
 -----------------------------------------------------------------------------------
      5.46319      4.14193      3.68859         0.095376     -0.176502     -0.197455
      4.03100      4.89447      4.46199         0.400150     -0.029201      0.023840
      5.62817      5.72413      4.49029         0.048586      0.170173     -0.029411
      5.37682      4.25943      5.47310        -0.004810     -0.040469     -0.019521
      5.13027      4.75323      4.52500        -0.539485      0.075793      0.222756
 -----------------------------------------------------------------------------------
    total drift:                               -0.000184     -0.000207      0.000209


--------------------------------------------------------------------------------------------------------



  FREE ENERGIE OF THE ION-ELECTRON SYSTEM (eV)
  ---------------------------------------------------
  free  energy   TOTEN  =       -24.02511599 eV

  energy  without entropy=      -24.02511599  energy(sigma->0) =      -24.02511599
 
 d Force =-0.7186886E-03[-0.922E-03,-0.515E-03]  d Energy =-0.7205017E-03 0.181E-05
 d Force =-0.2142033E-01[-0.211E-01,-0.217E-01]  d Ewald  =-0.2142056E-01 0.227E-06


--------------------------------------------------------------------------------------------------------


    POTLOK:  cpu time    0.1543: real time    0.1555


--------------------------------------------------------------------------------------------------------


           RANDOM_SEED =         172325750               30                0
   IONSTEP:  cpu time    0.0001: real time    0.0001

  ENERGY OF THE ELECTRON-ION-THERMOSTAT SYSTEM (eV)
  ---------------------------------------------------
% ion-electron   TOTEN  =       -24.025116  see above
  kinetic energy EKIN   =         0.006226
  kin. lattice  EKIN_LAT=         0.000000  (temperature   12.04 K)
  nose potential ES     =         0.000000
  nose kinetic   EPS    =         0.000000
  ---------------------------------------------------
  total energy   ETOTAL =       -24.018890 eV

  maximum distance moved by ions :      0.32E-03


 mean value of Nose-termostat <S>:     1.000 mean value of <T> :    10.113
 mean temperature <T/S>/<1/S>  :    10.113

    WAVPRE:  cpu time    0.0545: real time    0.0549
    FEWALD:  cpu time    0.0008: real time    0.0008
    ORTHCH:  cpu time    0.0089: real time    0.0090
 Prediction of Wavefunctions ALPHA= 2.092 BETA=-1.119
    POTLOK:  cpu time    0.1506: real time    0.1522
    EDDIAG:  cpu time    0.0425: real time    0.0427
     LOOP+:  cpu time    2.2739: real time    2.2935
    4ORBIT:  cpu time    0.0000: real time    0.0000

 total amount of memory used by VASP MPI-rank0    56571. kBytes
=======================================================================

   base      :      30000. kBytes
   nonl-proj :       2704. kBytes
   fftplans  :       8576. kBytes
   grid      :      13527. kBytes
   one-center:          6. kBytes
   wavefun   :       1758. kBytes
 
  
  
 General timing and accounting informations for this job:
 ========================================================
  
                  Total CPU time used (sec):       30.283
                            User time (sec):       28.009
                          System time (sec):        2.274
                         Elapsed time (sec):       30.665
  
                   Maximum memory used (kb):      179356.
                   Average memory used (kb):           0.
  
                          Minor page faults:       259837
                          Major page faults:            0
                 Voluntary context switches:           65
