5.381540000000000212e+00 4.068609999999999616e+00 3.605729999999999880e+00 3.945399999999999796e+00 4.803209999999999980e+00 4.384689999999999976e+00 5.520920000000000272e+00 5.654499999999999638e+00 4.427089999999999748e+00 5.281850000000000378e+00 4.164150000000000240e+00 5.391829999999999679e+00 5.032510000000000261e+00 4.672550000000000203e+00 4.452320000000000277e+00
5.381540000000000212e+00 4.068609999999999616e+00 3.605729999999999880e+00 3.945399999999999796e+00 4.803209999999999980e+00 4.384689999999999976e+00 5.520920000000000272e+00 5.654499999999999638e+00 4.427089999999999748e+00 5.281850000000000378e+00 4.164150000000000240e+00 5.391829999999999679e+00 5.032510000000000261e+00 4.672550000000000203e+00 4.452320000000000277e+00
5.381549999999999834e+00 4.068599999999999994e+00 3.605719999999999814e+00 3.945409999999999862e+00 4.803209999999999980e+00 4.384689999999999976e+00 5.520920000000000272e+00 5.654499999999999638e+00 4.427089999999999748e+00 5.281859999999999999e+00 4.164150000000000240e+00 5.391829999999999679e+00 5.032510000000000261e+00 4.672550000000000203e+00 4.452320000000000277e+00
5.381549999999999834e+00 4.068599999999999994e+00 3.605719999999999814e+00 3.945409999999999862e+00 4.803200000000000358e+00 4.384689999999999976e+00 5.520920000000000272e+00 5.654490000000000016e+00 4.427089999999999748e+00 5.281859999999999999e+00 4.164139999999999731e+00 5.391840000000000188e+00 5.032510000000000261e+00 4.672550000000000203e+00 4.452320000000000277e+00
5.381560000000000343e+00 4.068590000000000373e+00 3.605710000000000193e+00 3.945419999999999927e+00 4.803200000000000358e+00 4.384689999999999976e+00 5.520920000000000272e+00 5.654490000000000016e+00 4.427089999999999748e+00 5.281869999999999621e+00 4.164139999999999731e+00 5.391840000000000188e+00 5.032510000000000261e+00 4.672550000000000203e+00 4.452320000000000277e+00
5.381560000000000343e+00 4.068590000000000373e+00 3.605710000000000193e+00 3.945429999999999993e+00 4.803200000000000358e+00 4.384689999999999976e+00 5.520929999999999893e+00 5.654480000000000395e+00 4.427089999999999748e+00 5.281869999999999621e+00 4.164130000000000109e+00 5.391840000000000188e+00 5.032499999999999751e+00 4.672559999999999825e+00 4.452320000000000277e+00
5.381569999999999965e+00 4.068579999999999863e+00 3.605700000000000127e+00 3.945429999999999993e+00 4.803189999999999849e+00 4.384680000000000355e+00 5.520929999999999893e+00 5.654469999999999885e+00 4.427089999999999748e+00 5.281880000000000130e+00 4.164119999999999600e+00 5.391840000000000188e+00 5.032499999999999751e+00 4.672559999999999825e+00 4.452320000000000277e+00
5.381579999999999586e+00 4.068570000000000242e+00 3.605700000000000127e+00 3.945440000000000058e+00 4.803180000000000227e+00 4.384680000000000355e+00 5.520929999999999893e+00 5.654469999999999885e+00 4.427080000000000126e+00 5.281889999999999752e+00 4.164109999999999978e+00 5.391840000000000188e+00 5.032499999999999751e+00 4.672559999999999825e+00 4.452320000000000277e+00
5.381590000000000096e+00 4.068570000000000242e+00 3.605700000000000127e+00 3.945450000000000124e+00 4.803180000000000227e+00 4.384680000000000355e+00 5.520940000000000403e+00 5.654460000000000264e+00 4.427080000000000126e+00 5.281900000000000261e+00 4.164109999999999978e+00 5.391840000000000188e+00 5.032499999999999751e+00 4.672559999999999825e+00 4.452320000000000277e+00
5.381599999999999717e+00 4.068570000000000242e+00 3.605700000000000127e+00 3.945450000000000124e+00 4.803169999999999717e+00 4.384680000000000355e+00 5.520940000000000403e+00 5.654449999999999754e+00 4.427080000000000126e+00 5.281909999999999883e+00 4.164100000000000357e+00 5.391840000000000188e+00 5.032490000000000130e+00 4.672559999999999825e+00 4.452320000000000277e+00
5.374310000000000365e+00 4.093759999999999621e+00 3.655349999999999877e+00 3.938790000000000013e+00 4.830009999999999692e+00 4.453839999999999577e+00 5.501109999999999722e+00 5.698159999999999670e+00 4.490980000000000416e+00 5.304529999999999745e+00 4.168330000000000091e+00 5.469739999999999824e+00 5.031579999999999941e+00 4.700249999999999595e+00 4.510279999999999845e+00
5.374220000000000219e+00 4.094140000000000335e+00 3.655679999999999819e+00 3.939119999999999955e+00 4.829780000000000406e+00 4.453949999999999854e+00 5.501129999999999853e+00 5.697600000000000442e+00 4.490960000000000285e+00 5.303910000000000124e+00 4.169529999999999959e+00 5.467769999999999797e+00 5.031609999999999694e+00 4.700190000000000090e+00 4.510410000000000252e+00
5.374069999999999681e+00 4.094879999999999853e+00 3.656299999999999883e+00 3.939750000000000085e+00 4.829340000000000188e+00 4.454159999999999897e+00 5.501199999999999868e+00 5.696530000000000094e+00 4.490920000000000023e+00 5.302710000000000257e+00 4.171850000000000058e+00 5.463989999999999903e+00 5.031670000000000087e+00 4.700059999999999683e+00 4.510659999999999670e+00
5.373870000000000147e+00 4.095950000000000202e+00 3.657160000000000188e+00 3.940650000000000208e+00 4.828680000000000305e+00 4.454469999999999708e+00 5.501319999999999766e+00 5.695000000000000284e+00 4.490850000000000009e+00 5.301000000000000156e+00 4.175119999999999720e+00 5.458649999999999558e+00 5.031740000000000101e+00 4.699880000000000280e+00 4.511009999999999742e+00
5.373639999999999972e+00 4.097290000000000099e+00 3.658189999999999831e+00 3.941739999999999799e+00 4.827840000000000131e+00 4.454860000000000042e+00 5.501520000000000188e+00 5.693120000000000402e+00 4.490750000000000242e+00 5.298899999999999721e+00 4.179140000000000299e+00 5.452160000000000117e+00 5.031830000000000247e+00 4.699659999999999727e+00 4.511440000000000339e+00
5.373409999999999798e+00 4.098840000000000039e+00 3.659310000000000063e+00 3.942950000000000177e+00 4.826839999999999797e+00 4.455320000000000391e+00 5.501820000000000377e+00 5.690979999999999706e+00 4.490619999999999834e+00 5.296570000000000000e+00 4.183600000000000207e+00 5.445020000000000415e+00 5.031909999999999883e+00 4.699419999999999931e+00 4.511910000000000309e+00
5.373210000000000264e+00 4.100509999999999877e+00 3.660400000000000098e+00 3.944179999999999797e+00 4.825719999999999565e+00 4.455820000000000114e+00 5.502270000000000216e+00 5.688729999999999620e+00 4.490440000000000431e+00 5.294170000000000265e+00 4.188180000000000014e+00 5.437809999999999810e+00 5.031990000000000407e+00 4.699180000000000135e+00 4.512400000000000411e+00
5.373079999999999856e+00 4.102240000000000109e+00 3.661379999999999857e+00 3.945339999999999847e+00 4.824499999999999567e+00 4.456349999999999589e+00 5.502889999999999837e+00 5.686490000000000045e+00 4.490210000000000257e+00 5.291879999999999917e+00 4.192520000000000024e+00 5.431149999999999700e+00 5.032040000000000290e+00 4.698959999999999582e+00 4.512850000000000250e+00
5.373039999999999594e+00 4.103939999999999699e+00 3.662150000000000016e+00 3.946340000000000181e+00 4.823229999999999684e+00 4.456870000000000331e+00 5.503700000000000259e+00 5.684400000000000119e+00 4.489930000000000199e+00 5.289900000000000269e+00 4.196270000000000167e+00 5.425659999999999705e+00 5.032060000000000421e+00 4.698789999999999800e+00 4.513219999999999565e+00
5.373120000000000118e+00 4.105529999999999902e+00 3.662619999999999987e+00 3.947090000000000209e+00 4.821930000000000049e+00 4.457390000000000185e+00 5.504730000000000345e+00 5.682559999999999611e+00 4.489589999999999748e+00 5.288389999999999702e+00 4.199119999999999742e+00 5.421859999999999680e+00 5.032029999999999781e+00 4.698680000000000412e+00 4.513480000000000381e+00
5.418079999999999785e+00 4.000000000000000000e+00 3.663400000000000212e+00 3.929450000000000109e+00 4.721230000000000260e+00 4.455119999999999969e+00 5.536559999999999704e+00 5.571010000000000240e+00 4.494209999999999816e+00 5.302139999999999631e+00 4.063430000000000319e+00 5.480389999999999873e+00 5.039589999999999570e+00 4.586640000000000050e+00 4.526539999999999786e+00
5.417460000000000164e+00 4.000239999999999796e+00 3.664190000000000058e+00 3.931229999999999780e+00 4.720930000000000071e+00 4.455199999999999605e+00 5.536200000000000010e+00 5.570730000000000182e+00 4.494500000000000384e+00 5.301689999999999792e+00 4.064199999999999591e+00 5.478989999999999583e+00 5.039559999999999818e+00 4.586610000000000298e+00 4.526559999999999917e+00
5.416229999999999656e+00 4.000689999999999635e+00 3.665719999999999867e+00 3.934660000000000046e+00 4.720340000000000202e+00 4.455330000000000013e+00 5.535510000000000375e+00 5.570190000000000197e+00 4.495059999999999611e+00 5.300830000000000375e+00 4.065690000000000026e+00 5.476270000000000415e+00 5.039500000000000313e+00 4.586540000000000283e+00 4.526600000000000179e+00
5.414469999999999672e+00 4.001299999999999635e+00 3.667879999999999807e+00 3.939499999999999780e+00 4.719500000000000028e+00 4.455510000000000304e+00 5.534500000000000419e+00 5.569429999999999659e+00 4.495890000000000164e+00 5.299599999999999866e+00 4.067789999999999573e+00 5.472439999999999749e+00 5.039430000000000298e+00 4.586439999999999628e+00 4.526650000000000063e+00
5.412239999999999718e+00 4.001970000000000027e+00 3.670529999999999848e+00 3.945390000000000175e+00 4.718449999999999811e+00 4.455700000000000216e+00 5.533240000000000158e+00 5.568529999999999980e+00 4.496959999999999624e+00 5.298090000000000188e+00 4.070359999999999978e+00 5.467780000000000307e+00 5.039360000000000284e+00 4.586339999999999861e+00 4.526709999999999567e+00
5.409659999999999691e+00 4.002609999999999779e+00 3.673459999999999948e+00 3.951890000000000125e+00 4.717249999999999943e+00 4.455899999999999750e+00 5.531769999999999854e+00 5.567560000000000286e+00 4.498260000000000147e+00 5.296400000000000219e+00 4.073190000000000310e+00 5.462650000000000006e+00 5.039299999999999891e+00 4.586229999999999585e+00 4.526769999999999960e+00
5.406839999999999868e+00 4.003079999999999750e+00 3.676470000000000127e+00 3.958480000000000221e+00 4.715980000000000061e+00 4.456070000000000420e+00 5.530149999999999899e+00 5.566620000000000346e+00 4.499760000000000204e+00 5.294649999999999856e+00 4.076060000000000016e+00 5.457440000000000069e+00 5.039259999999999629e+00 4.586129999999999818e+00 4.526819999999999844e+00
5.403900000000000148e+00 4.003280000000000172e+00 3.679339999999999833e+00 3.964649999999999785e+00 4.714710000000000178e+00 4.456179999999999808e+00 5.528470000000000439e+00 5.565800000000000303e+00 4.501420000000000421e+00 5.292950000000000266e+00 4.078739999999999810e+00 5.452589999999999826e+00 5.039279999999999760e+00 4.586070000000000313e+00 4.526830000000000354e+00
5.400960000000000427e+00 4.003090000000000259e+00 3.681849999999999845e+00 3.969869999999999788e+00 4.713510000000000311e+00 4.456199999999999939e+00 5.526779999999999582e+00 5.565190000000000303e+00 4.503210000000000157e+00 5.291419999999999568e+00 4.081010000000000026e+00 5.448509999999999742e+00 5.039349999999999774e+00 4.586050000000000182e+00 4.526810000000000223e+00
5.398150000000000226e+00 4.002430000000000376e+00 3.683819999999999872e+00 3.973700000000000010e+00 4.712430000000000341e+00 4.456109999999999793e+00 5.525150000000000006e+00 5.564879999999999605e+00 4.505099999999999660e+00 5.290160000000000196e+00 4.082679999999999865e+00 5.445540000000000269e+00 5.039509999999999934e+00 4.586079999999999934e+00 4.526749999999999829e+00
5.418689999999999785e+00 4.189259999999999984e+00 3.534930000000000128e+00 3.940449999999999786e+00 4.940279999999999561e+00 4.294640000000000235e+00 5.533419999999999561e+00 5.821589999999999598e+00 4.341389999999999638e+00 5.322890000000000121e+00 4.289760000000000240e+00 5.284299999999999997e+00 5.053169999999999717e+00 4.809789999999999566e+00 4.363620000000000054e+00
5.418479999999999741e+00 4.189680000000000071e+00 3.534600000000000186e+00 3.942299999999999915e+00 4.939860000000000362e+00 4.294780000000000264e+00 5.532840000000000202e+00 5.819950000000000401e+00 4.341350000000000264e+00 5.322720000000000340e+00 4.289869999999999628e+00 5.284980000000000011e+00 5.053099999999999703e+00 4.809910000000000352e+00 4.363579999999999792e+00
5.418090000000000295e+00 4.190509999999999735e+00 3.533939999999999859e+00 3.945870000000000211e+00 4.939029999999999809e+00 4.295049999999999812e+00 5.531729999999999592e+00 5.816779999999999617e+00 4.341280000000000250e+00 5.322390000000000398e+00 4.290110000000000312e+00 5.286310000000000286e+00 5.052950000000000053e+00 4.810159999999999769e+00 4.363509999999999778e+00
5.417500000000000426e+00 4.191729999999999734e+00 3.532979999999999787e+00 3.950909999999999922e+00 4.937839999999999563e+00 4.295429999999999637e+00 5.530190000000000161e+00 5.812310000000000088e+00 4.341160000000000352e+00 5.321869999999999656e+00 4.290510000000000268e+00 5.288199999999999790e+00 5.052749999999999631e+00 4.810489999999999711e+00 4.363410000000000011e+00
5.416750000000000398e+00 4.193319999999999936e+00 3.531750000000000167e+00 3.957030000000000047e+00 4.936329999999999885e+00 4.295899999999999608e+00 5.528380000000000294e+00 5.806849999999999845e+00 4.341009999999999813e+00 5.321159999999999890e+00 4.291089999999999627e+00 5.290519999999999889e+00 5.052520000000000344e+00 4.810889999999999667e+00 4.363290000000000113e+00
5.415840000000000209e+00 4.195229999999999571e+00 3.530260000000000176e+00 3.963750000000000107e+00 4.934569999999999901e+00 4.296429999999999971e+00 5.526460000000000150e+00 5.800819999999999865e+00 4.340799999999999770e+00 5.320240000000000080e+00 4.291909999999999670e+00 5.293129999999999669e+00 5.052270000000000039e+00 4.811309999999999754e+00 4.363170000000000215e+00
5.414789999999999992e+00 4.197440000000000282e+00 3.528570000000000206e+00 3.970540000000000180e+00 4.932629999999999626e+00 4.296990000000000087e+00 5.524639999999999773e+00 5.794660000000000366e+00 4.340550000000000352e+00 5.319110000000000227e+00 4.292980000000000018e+00 5.295880000000000365e+00 5.052039999999999864e+00 4.811709999999999710e+00 4.363059999999999938e+00
5.413619999999999877e+00 4.199889999999999901e+00 3.526689999999999880e+00 3.976820000000000022e+00 4.930600000000000094e+00 4.297530000000000072e+00 5.523139999999999716e+00 5.788850000000000051e+00 4.340250000000000163e+00 5.317770000000000330e+00 4.294349999999999667e+00 5.298610000000000042e+00 5.051849999999999952e+00 4.812050000000000161e+00 4.362969999999999793e+00
5.412370000000000125e+00 4.202519999999999811e+00 3.524690000000000101e+00 3.982040000000000024e+00 4.928569999999999673e+00 4.298029999999999795e+00 5.522160000000000402e+00 5.783859999999999779e+00 4.339900000000000091e+00 5.316220000000000390e+00 4.296020000000000394e+00 5.301179999999999559e+00 5.051730000000000054e+00 4.812280000000000335e+00 4.362910000000000288e+00
5.411059999999999981e+00 4.205289999999999750e+00 3.522569999999999979e+00 3.985739999999999839e+00 4.926599999999999646e+00 4.298449999999999882e+00 5.521860000000000213e+00 5.780070000000000263e+00 4.339500000000000135e+00 5.314470000000000027e+00 4.297990000000000421e+00 5.303480000000000416e+00 5.051700000000000301e+00 4.812359999999999971e+00 4.362890000000000157e+00
5.336879999999999846e+00 4.003389999999999560e+00 3.575029999999999930e+00 3.944869999999999877e+00 4.734270000000000422e+00 4.342089999999999783e+00 5.492449999999999832e+00 5.568529999999999980e+00 4.392019999999999591e+00 5.250820000000000043e+00 4.106609999999999872e+00 5.341969999999999885e+00 5.007780000000000342e+00 4.602439999999999642e+00 4.409650000000000070e+00
5.337519999999999598e+00 4.002600000000000158e+00 3.573939999999999895e+00 3.942860000000000031e+00 4.734580000000000233e+00 4.342060000000000031e+00 5.493059999999999832e+00 5.569679999999999964e+00 4.391849999999999810e+00 5.251070000000000348e+00 4.105990000000000251e+00 5.342850000000000321e+00 5.007819999999999716e+00 4.602439999999999642e+00 4.409690000000000332e+00
5.338770000000000238e+00 4.001089999999999591e+00 3.571860000000000035e+00 3.939049999999999940e+00 4.735170000000000101e+00 4.341999999999999638e+00 5.494229999999999947e+00 5.571880000000000166e+00 4.391490000000000116e+00 5.251540000000000319e+00 4.104790000000000383e+00 5.344540000000000290e+00 5.007900000000000240e+00 4.602430000000000021e+00 4.409749999999999837e+00
5.340519999999999712e+00 3.999000000000000110e+00 3.568979999999999819e+00 3.933759999999999923e+00 4.735990000000000144e+00 4.341920000000000002e+00 5.495870000000000033e+00 5.574959999999999916e+00 4.390979999999999883e+00 5.252200000000000202e+00 4.103089999999999904e+00 5.346890000000000143e+00 5.008000000000000007e+00 4.602420000000000400e+00 4.409849999999999604e+00
5.342679999999999652e+00 3.996500000000000163e+00 3.565549999999999997e+00 3.927449999999999886e+00 4.736979999999999968e+00 4.341849999999999987e+00 5.497849999999999682e+00 5.578640000000000043e+00 4.390310000000000379e+00 5.252979999999999983e+00 4.101009999999999600e+00 5.349709999999999965e+00 5.008110000000000284e+00 4.602420000000000400e+00 4.409959999999999880e+00
5.345110000000000028e+00 3.993809999999999860e+00 3.561859999999999804e+00 3.920659999999999812e+00 4.738080000000000069e+00 4.341809999999999725e+00 5.500009999999999621e+00 5.582629999999999981e+00 4.389509999999999579e+00 5.253840000000000288e+00 4.098670000000000258e+00 5.352750000000000341e+00 5.008230000000000182e+00 4.602409999999999890e+00 4.410079999999999778e+00
5.347649999999999793e+00 3.991150000000000198e+00 3.558219999999999938e+00 3.913940000000000197e+00 4.739209999999999923e+00 4.341820000000000235e+00 5.502189999999999692e+00 5.586619999999999919e+00 4.388600000000000279e+00 5.254690000000000083e+00 4.096239999999999881e+00 5.355769999999999698e+00 5.008320000000000327e+00 4.602409999999999890e+00 4.410210000000000186e+00
5.350170000000000314e+00 3.988750000000000018e+00 3.554940000000000211e+00 3.907799999999999940e+00 4.740289999999999893e+00 4.341910000000000380e+00 5.504220000000000113e+00 5.590279999999999916e+00 4.387590000000000323e+00 5.255489999999999995e+00 4.093860000000000277e+00 5.358509999999999884e+00 5.008390000000000342e+00 4.602409999999999890e+00 4.410330000000000084e+00
5.352540000000000298e+00 3.986790000000000056e+00 3.552270000000000039e+00 3.902699999999999836e+00 4.741259999999999586e+00 4.342089999999999783e+00 5.505959999999999965e+00 5.593340000000000423e+00 4.386510000000000353e+00 5.256149999999999878e+00 4.091669999999999696e+00 5.360759999999999970e+00 5.008409999999999584e+00 4.602420000000000400e+00 4.410440000000000360e+00
5.354630000000000223e+00 3.985430000000000028e+00 3.550429999999999975e+00 3.899030000000000218e+00 4.742070000000000007e+00 4.342369999999999841e+00 5.507299999999999862e+00 5.595570000000000377e+00 4.385379999999999612e+00 5.256649999999999601e+00 4.089780000000000193e+00 5.362320000000000420e+00 5.008390000000000342e+00 4.602439999999999642e+00 4.410529999999999617e+00
5.336829999999999963e+00 4.011630000000000251e+00 3.684180000000000010e+00 3.957139999999999880e+00 4.727380000000000138e+00 4.474689999999999834e+00 5.501680000000000348e+00 5.565190000000000303e+00 4.523489999999999789e+00 5.259319999999999773e+00 4.115910000000000402e+00 5.510679999999999801e+00 5.008969999999999700e+00 4.606530000000000236e+00 4.548280000000000101e+00
5.337150000000000283e+00 4.011429999999999829e+00 3.684639999999999915e+00 3.954089999999999883e+00 4.727960000000000385e+00 4.474700000000000344e+00 5.502239999999999576e+00 5.566670000000000229e+00 4.523329999999999629e+00 5.259179999999999744e+00 4.115899999999999892e+00 5.509649999999999714e+00 5.009159999999999613e+00 4.606379999999999697e+00 4.548339999999999606e+00
5.337780000000000413e+00 4.011020000000000252e+00 3.685529999999999973e+00 3.948290000000000077e+00 4.729070000000000107e+00 4.474739999999999718e+00 5.503300000000000303e+00 5.569499999999999673e+00 4.523039999999999949e+00 5.258930000000000327e+00 4.115850000000000009e+00 5.507670000000000066e+00 5.009520000000000195e+00 4.606090000000000018e+00 4.548460000000000392e+00
5.338720000000000354e+00 4.010399999999999743e+00 3.686809999999999921e+00 3.940319999999999823e+00 4.730649999999999800e+00 4.474829999999999863e+00 5.504739999999999966e+00 5.573439999999999728e+00 4.522599999999999731e+00 5.258589999999999876e+00 4.115719999999999601e+00 5.504879999999999995e+00 5.010019999999999918e+00 4.605690000000000062e+00 4.548610000000000042e+00
5.339949999999999974e+00 4.009570000000000078e+00 3.688429999999999875e+00 3.930909999999999904e+00 4.732610000000000205e+00 4.475010000000000154e+00 5.506409999999999805e+00 5.578170000000000073e+00 4.522039999999999615e+00 5.258189999999999920e+00 4.115440000000000431e+00 5.501470000000000304e+00 5.010589999999999655e+00 4.605229999999999713e+00 4.548790000000000333e+00
5.341450000000000031e+00 4.008530000000000371e+00 3.690319999999999823e+00 3.920900000000000052e+00 4.734820000000000029e+00 4.475319999999999965e+00 5.508099999999999774e+00 5.583330000000000126e+00 4.521379999999999733e+00 5.257789999999999964e+00 4.114930000000000199e+00 5.497670000000000279e+00 5.011190000000000033e+00 4.604739999999999611e+00 4.548980000000000246e+00
5.343189999999999884e+00 4.007270000000000110e+00 3.692410000000000192e+00 3.911140000000000061e+00 4.737180000000000391e+00 4.475789999999999935e+00 5.509649999999999714e+00 5.588519999999999932e+00 4.520629999999999704e+00 5.257430000000000270e+00 4.114119999999999777e+00 5.493769999999999598e+00 5.011759999999999771e+00 4.604289999999999772e+00 4.549150000000000027e+00
5.345150000000000290e+00 4.005799999999999805e+00 3.694599999999999884e+00 3.902400000000000091e+00 4.739569999999999617e+00 4.476449999999999818e+00 5.510849999999999582e+00 5.593350000000000044e+00 4.519820000000000171e+00 5.257159999999999833e+00 4.112910000000000288e+00 5.490009999999999835e+00 5.012249999999999872e+00 4.603909999999999947e+00 4.549299999999999677e+00
5.347290000000000099e+00 4.004139999999999588e+00 3.696839999999999904e+00 3.895319999999999894e+00 4.741880000000000095e+00 4.477310000000000123e+00 5.511560000000000237e+00 5.597500000000000142e+00 4.518970000000000375e+00 5.257030000000000314e+00 4.111259999999999692e+00 5.486650000000000027e+00 5.012609999999999566e+00 4.603650000000000020e+00 4.549389999999999823e+00
5.349569999999999936e+00 4.002309999999999590e+00 3.699059999999999793e+00 3.890410000000000146e+00 4.744019999999999904e+00 4.478369999999999962e+00 5.511669999999999625e+00 5.600670000000000037e+00 4.518099999999999561e+00 5.257069999999999688e+00 4.109119999999999884e+00 5.483889999999999709e+00 5.012819999999999609e+00 4.603539999999999743e+00 4.549419999999999575e+00
5.500910000000000188e+00 4.122239999999999682e+00 3.683580000000000076e+00 4.083549999999999791e+00 4.868750000000000355e+00 4.478629999999999889e+00 5.662779999999999703e+00 5.714959999999999596e+00 4.518869999999999720e+00 5.451570000000000249e+00 4.268869999999999720e+00 5.500750000000000028e+00 5.173449999999999882e+00 4.743339999999999890e+00 4.544740000000000002e+00
5.500890000000000057e+00 4.122810000000000308e+00 3.684569999999999901e+00 4.083709999999999951e+00 4.868809999999999860e+00 4.478909999999999947e+00 5.662980000000000125e+00 5.715659999999999741e+00 4.518449999999999633e+00 5.451209999999999667e+00 4.268629999999999924e+00 5.500210000000000043e+00 5.173449999999999882e+00 4.743249999999999744e+00 4.544710000000000250e+00
5.500869999999999926e+00 4.123890000000000278e+00 3.686469999999999914e+00 4.084019999999999762e+00 4.868949999999999889e+00 4.479470000000000063e+00 5.663350000000000328e+00 5.717019999999999769e+00 4.517599999999999838e+00 5.450520000000000032e+00 4.268139999999999823e+00 5.499170000000000336e+00 5.173449999999999882e+00 4.743079999999999963e+00 4.544660000000000366e+00
5.500890000000000057e+00 4.125409999999999577e+00 3.689169999999999838e+00 4.084469999999999601e+00 4.869150000000000311e+00 4.480290000000000106e+00 5.663840000000000430e+00 5.718910000000000160e+00 4.516359999999999708e+00 5.449510000000000076e+00 4.267389999999999795e+00 5.497690000000000410e+00 5.173460000000000392e+00 4.742840000000000167e+00 4.544599999999999973e+00
5.501000000000000334e+00 4.127229999999999954e+00 3.692460000000000075e+00 4.085009999999999586e+00 4.869419999999999860e+00 4.481349999999999945e+00 5.664380000000000415e+00 5.721180000000000376e+00 4.514759999999999884e+00 5.448229999999999684e+00 4.266379999999999839e+00 5.495870000000000033e+00 5.173460000000000392e+00 4.742560000000000109e+00 4.544520000000000337e+00
5.501260000000000261e+00 4.129209999999999603e+00 3.696120000000000072e+00 4.085609999999999964e+00 4.869769999999999932e+00 4.482639999999999958e+00 5.664900000000000269e+00 5.723650000000000126e+00 4.512819999999999609e+00 5.446729999999999627e+00 4.265080000000000204e+00 5.493809999999999860e+00 5.173479999999999634e+00 4.742270000000000429e+00 4.544439999999999813e+00
5.501730000000000231e+00 4.131170000000000009e+00 3.699899999999999967e+00 4.086210000000000342e+00 4.870180000000000398e+00 4.484119999999999884e+00 5.665289999999999715e+00 5.726119999999999877e+00 4.510600000000000165e+00 5.445050000000000168e+00 4.263480000000000381e+00 5.491649999999999920e+00 5.173490000000000144e+00 4.741999999999999993e+00 4.544369999999999798e+00
5.502489999999999881e+00 4.132939999999999614e+00 3.703530000000000211e+00 4.086780000000000079e+00 4.870669999999999611e+00 4.485759999999999970e+00 5.665499999999999758e+00 5.728410000000000224e+00 4.508140000000000036e+00 5.443249999999999922e+00 4.261589999999999989e+00 5.489489999999999981e+00 5.173519999999999897e+00 4.741780000000000328e+00 4.544310000000000294e+00
5.503580000000000361e+00 4.134360000000000035e+00 3.706749999999999989e+00 4.087270000000000181e+00 4.871220000000000105e+00 4.487529999999999575e+00 5.665440000000000254e+00 5.730339999999999989e+00 4.505510000000000126e+00 5.441399999999999793e+00 4.259389999999999787e+00 5.487479999999999691e+00 5.173540000000000028e+00 4.741640000000000299e+00 4.544290000000000163e+00
5.505040000000000155e+00 4.135279999999999845e+00 3.709350000000000147e+00 4.087640000000000384e+00 4.871819999999999595e+00 4.489399999999999835e+00 5.665070000000000050e+00 5.731770000000000032e+00 4.502769999999999939e+00 5.439540000000000042e+00 4.256910000000000416e+00 5.485710000000000086e+00 5.173580000000000290e+00 4.741600000000000037e+00 4.544290000000000163e+00
5.196860000000000035e+00 3.978209999999999802e+00 3.562040000000000095e+00 3.799370000000000136e+00 4.699080000000000368e+00 4.334259999999999557e+00 5.322770000000000223e+00 5.529989999999999739e+00 4.380799999999999805e+00 5.083929999999999616e+00 4.060819999999999652e+00 5.328229999999999578e+00 4.846269999999999634e+00 4.568990000000000329e+00 4.393849999999999589e+00
5.197300000000000253e+00 3.977390000000000203e+00 3.560909999999999798e+00 3.795869999999999855e+00 4.699449999999999683e+00 4.333919999999999995e+00 5.323760000000000048e+00 5.531769999999999854e+00 4.380770000000000053e+00 5.084190000000000431e+00 4.060509999999999842e+00 5.328719999999999679e+00 4.846420000000000172e+00 4.568909999999999805e+00 4.393930000000000113e+00
5.198140000000000427e+00 3.975810000000000066e+00 3.558749999999999858e+00 3.789219999999999811e+00 4.700149999999999828e+00 4.333269999999999733e+00 5.325660000000000061e+00 5.535180000000000433e+00 4.380720000000000169e+00 5.084690000000000154e+00 4.059899999999999842e+00 5.329659999999999620e+00 4.846700000000000230e+00 4.568749999999999645e+00 4.394099999999999895e+00
5.199300000000000033e+00 3.973619999999999930e+00 3.555719999999999992e+00 3.780089999999999950e+00 4.701089999999999769e+00 4.332349999999999923e+00 5.328299999999999592e+00 5.539909999999999890e+00 4.380639999999999645e+00 5.085410000000000430e+00 4.059050000000000047e+00 5.331000000000000405e+00 4.847089999999999677e+00 4.568529999999999980e+00 4.394319999999999560e+00
5.200680000000000192e+00 3.971000000000000085e+00 3.552090000000000192e+00 3.769309999999999938e+00 4.702189999999999870e+00 4.331190000000000317e+00 5.331479999999999997e+00 5.545550000000000423e+00 4.380530000000000257e+00 5.086299999999999599e+00 4.057999999999999829e+00 5.332620000000000360e+00 4.847529999999999895e+00 4.568270000000000053e+00 4.394589999999999996e+00
5.202139999999999986e+00 3.968140000000000001e+00 3.548130000000000006e+00 3.757829999999999782e+00 4.703330000000000233e+00 4.329880000000000173e+00 5.334929999999999950e+00 5.551630000000000287e+00 4.380399999999999849e+00 5.087329999999999686e+00 4.056820000000000093e+00 5.334430000000000227e+00 4.847990000000000244e+00 4.568010000000000126e+00 4.394890000000000185e+00
5.203560000000000407e+00 3.965289999999999981e+00 3.544150000000000134e+00 3.746609999999999996e+00 4.704399999999999693e+00 4.328479999999999883e+00 5.338390000000000413e+00 5.557640000000000136e+00 4.380250000000000199e+00 5.088440000000000296e+00 4.055579999999999963e+00 5.336289999999999978e+00 4.848429999999999573e+00 4.567759999999999820e+00 4.395199999999999996e+00
5.204810000000000159e+00 3.962650000000000006e+00 3.540449999999999875e+00 3.736509999999999998e+00 4.705300000000000260e+00 4.327040000000000219e+00 5.341610000000000191e+00 5.563119999999999621e+00 4.380090000000000039e+00 5.089579999999999771e+00 4.054369999999999585e+00 5.338059999999999583e+00 4.848799999999999777e+00 4.567549999999999777e+00 4.395489999999999675e+00
5.205779999999999852e+00 3.960430000000000117e+00 3.537290000000000045e+00 3.728260000000000129e+00 4.705969999999999764e+00 4.325630000000000308e+00 5.344369999999999621e+00 5.567660000000000053e+00 4.379900000000000126e+00 5.090700000000000003e+00 4.053250000000000242e+00 5.339610000000000412e+00 4.849079999999999835e+00 4.567389999999999617e+00 4.395760000000000112e+00
5.206369999999999720e+00 3.958790000000000031e+00 3.534909999999999997e+00 3.722430000000000128e+00 4.706319999999999837e+00 4.324290000000000411e+00 5.346479999999999677e+00 5.570899999999999963e+00 4.379710000000000214e+00 5.091750000000000220e+00 4.052310000000000301e+00 5.340840000000000032e+00 4.849260000000000126e+00 4.567309999999999981e+00 4.395979999999999777e+00