-2.402879021000000037e+01
-2.402879034000000047e+01
-2.402879034000000047e+01
-2.402879032999999964e+01
-2.402879041999999998e+01
-2.402879038000000023e+01
-2.402879043000000081e+01
-2.402879043000000081e+01
-2.402879043000000081e+01
-2.402879039000000105e+01
-2.400948500999999879e+01
-2.401215549999999865e+01
-2.401677065000000155e+01
-2.402206400000000031e+01
-2.402650875999999869e+01
-2.402873570999999941e+01
-2.402798794999999998e+01
-2.402441982999999937e+01
-2.401919013999999919e+01
-2.401413190999999969e+01
-2.400572850000000003e+01
-2.400870812999999870e+01
-2.401385524000000160e+01
-2.401975304999999850e+01
-2.402472971999999984e+01
-2.402732719000000117e+01
-2.402677544000000154e+01
-2.402328504999999836e+01
-2.401801563000000073e+01
-2.401280288999999968e+01
-2.400314713999999938e+01
-2.400626623999999865e+01
-2.401165685000000138e+01
-2.401784445999999917e+01
-2.402309716999999978e+01
-2.402592252999999900e+01
-2.402557037000000051e+01
-2.402228802999999857e+01
-2.401735109999999906e+01
-2.401264554999999845e+01
-2.400619267000000079e+01
-2.400988419000000107e+01
-2.401601361999999895e+01
-2.402255729000000173e+01
-2.402742677000000171e+01
-2.402916035999999878e+01
-2.402735170000000053e+01
-2.402267578000000015e+01
-2.401661349999999828e+01
-2.401097851999999833e+01
-2.399207342000000054e+01
-2.399774196999999987e+01
-2.400702357000000120e+01
-2.401669867000000025e+01
-2.402362859999999856e+01
-2.402584931000000168e+01
-2.402310892999999936e+01
-2.401668160999999913e+01
-2.400885089000000150e+01
-2.400214370999999858e+01
-2.401759552000000042e+01
-2.401867960999999951e+01
-2.402056445999999923e+01
-2.402277116000000134e+01
-2.402475761999999904e+01
-2.402608550000000065e+01
-2.402654517999999939e+01
-2.402621356999999946e+01
-2.402541554000000090e+01
-2.402460497999999944e+01
-2.398434393999999870e+01
-2.399209267000000168e+01
-2.400471758999999849e+01
-2.401771727999999939e+01
-2.402674091000000089e+01
-2.402910928000000013e+01
-2.402445467000000079e+01
-2.401452907999999908e+01
-2.400243382000000025e+01
-2.399163728999999989e+01
-2.401968954000000167e+01
-2.402058827000000107e+01
-2.402215550000000022e+01
-2.402400022000000135e+01
-2.402567597000000177e+01
-2.402682907999999884e+01
-2.402727126999999996e+01
-2.402706076999999851e+01
-2.402645516999999842e+01
-2.402581640000000007e+01
-2.401571699000000137e+01
-2.401766682999999958e+01
-2.402098403999999832e+01
-2.402467177000000120e+01
-2.402758941000000092e+01
-2.402881340000000066e+01
-2.402793438999999864e+01
-2.402523163000000039e+01
-2.402162768000000170e+01
-2.401840477000000007e+01
-2.402060742000000104e+01
-2.402164760000000143e+01
-2.402341961999999853e+01
-2.402541177000000161e+01
-2.402705295000000163e+01
-2.402789875999999936e+01
-2.402776417999999836e+01
-2.402678805000000040e+01
-2.402538941999999977e+01
-2.402412505999999937e+01
-2.400706508000000028e+01
-2.401006333999999853e+01
-2.401522410999999835e+01
-2.402110421000000073e+01
-2.402599363999999937e+01
-2.402839385000000050e+01
-2.402751166999999910e+01
-2.402357234999999847e+01
-2.401784997000000033e+01
-2.401232067999999842e+01
-2.401828353999999877e+01
-2.401937089999999841e+01
-2.402123899000000051e+01
-2.402337756000000013e+01
-2.402523470999999944e+01
-2.402639578000000142e+01
-2.402670198999999940e+01
-2.402627290999999943e+01
-2.402545329999999879e+01
-2.402467118999999940e+01
-2.401261769999999984e+01
-2.401499554000000103e+01
-2.401898843000000028e+01
-2.402334178999999992e+01
-2.402668746000000155e+01
-2.402800137999999919e+01
-2.402692396000000130e+01
-2.402389133000000143e+01
-2.401999327000000051e+01
-2.401661620000000141e+01
-2.401808953000000102e+01
-2.401966403999999855e+01
-2.402228836999999828e+01
-2.402512159999999852e+01
-2.402729262000000077e+01
-2.402818995999999885e+01
-2.402765146999999857e+01
-2.402594948999999858e+01
-2.402369848000000019e+01
-2.402163767000000050e+01
-2.400503661999999849e+01
-2.400822821999999945e+01
-2.401359542000000147e+01
-2.401946445000000097e+01
-2.402404729999999944e+01
-2.402604111000000131e+01
-2.402501807000000156e+01
-2.402153094999999894e+01
-2.401693453000000034e+01
-2.401293103000000073e+01
-2.401898526000000089e+01
-2.402002248000000151e+01
-2.402179793999999902e+01
-2.402382838000000120e+01
-2.402559027999999941e+01
-2.402669811999999894e+01
-2.402699142000000165e+01
-2.402659766000000019e+01
-2.402583648999999966e+01
-2.402511598999999975e+01
-2.401793478000000093e+01
-2.401946374999999989e+01
-2.402201717000000158e+01
-2.402478237000000050e+01
-2.402692310999999847e+01
-2.402786199999999894e+01
-2.402745215999999928e+01
-2.402597688999999903e+01
-2.402401968999999937e+01
-2.402227291000000164e+01
-2.399646492000000109e+01
-2.400132621999999927e+01
-2.400949415999999914e+01
-2.401837450000000018e+01
-2.402515341000000149e+01
-2.402771667000000022e+01
-2.402528720999999834e+01
-2.401871287999999893e+01
-2.401022950000000122e+01
-2.400276161000000030e+01
-2.400550425000000132e+01
-2.400837276000000031e+01
-2.401333482000000075e+01
-2.401904032999999927e+01
-2.402389282000000037e+01
-2.402649510000000177e+01
-2.402611806000000172e+01
-2.402295476999999835e+01
-2.401817351000000045e+01
-2.401355437000000137e+01
-2.400154580999999965e+01
-2.400579593000000145e+01
-2.401276308999999998e+01
-2.402003333000000040e+01
-2.402525350000000159e+01
-2.402694780999999935e+01
-2.402490153999999833e+01
-2.402004103000000157e+01
-2.401403639999999839e+01
-2.400874680000000083e+01
-2.400790719000000095e+01
-2.400994899999999888e+01
-2.401345624000000001e+01
-2.401747582999999864e+01
-2.402099021000000079e+01
-2.402324623000000159e+01
-2.402395710000000051e+01
-2.402333876000000146e+01
-2.402199839000000026e+01
-2.402069278999999824e+01
-2.401339482999999930e+01
-2.401587251999999850e+01
-2.401999238999999875e+01
-2.402439522999999966e+01
-2.402765468000000126e+01
-2.402875914999999907e+01
-2.402742853000000167e+01
-2.402417567999999903e+01
-2.402011815999999911e+01
-2.401661053999999851e+01
-2.398748860999999977e+01
-2.399308432000000124e+01
-2.400279610999999846e+01
-2.401398593000000048e+01
-2.402346491999999856e+01
-2.402835672999999872e+01
-2.402697902999999968e+01
-2.401954742999999937e+01
-2.400834110999999993e+01
-2.399712553000000170e+01
-2.401613225999999912e+01
-2.401769300000000129e+01
-2.402033670999999870e+01
-2.402327538999999845e+01
-2.402567378999999903e+01
-2.402692841000000001e+01
-2.402683036999999899e+01
-2.402558825999999925e+01
-2.402374509999999930e+01
-2.402198664000000150e+01
-2.399435931000000011e+01
-2.399879439000000048e+01
-2.400648530000000136e+01
-2.401535930000000008e+01
-2.402292596999999930e+01
-2.402694783999999828e+01
-2.402614322000000158e+01
-2.402070331999999908e+01
-2.401240320000000139e+01
-2.400413175999999993e+01
-2.400575084999999831e+01
-2.400882165999999884e+01
-2.401405782000000144e+01
-2.401992200999999838e+01
-2.402467280999999844e+01
-2.402690488000000002e+01
-2.402600083999999825e+01
-2.402237767000000090e+01
-2.401738548000000151e+01
-2.401289188999999880e+01
-2.400825236000000018e+01
-2.401163947999999948e+01
-2.401723210000000108e+01
-2.402311375000000027e+01
-2.402734296999999941e+01
-2.402862113000000122e+01
-2.402667515999999992e+01
-2.402225268000000113e+01
-2.401683296999999939e+01
-2.401213418000000033e+01
-2.400574518000000168e+01
-2.400921293000000034e+01
-2.401508283000000077e+01
-2.402155352999999849e+01
-2.402660123000000070e+01
-2.402861661000000026e+01
-2.402693302999999858e+01
-2.402209037000000080e+01
-2.401572747999999891e+01
-2.401007552000000089e+01
-2.402009839000000113e+01
-2.402141045999999847e+01
-2.402360828999999853e+01
-2.402598854000000017e+01
-2.402781539000000066e+01
-2.402857894999999999e+01
-2.402813164000000157e+01
-2.402670103999999895e+01
-2.402480654000000015e+01
-2.402307834999999869e+01
