7.320000000000000118e-04 -7.979999999999999897e-04 -7.770000000000000214e-04 9.150000000000000147e-04 -4.640000000000000027e-04 -1.179999999999999951e-04 1.160000000000000007e-04 -7.110000000000000434e-04 -8.600000000000000331e-05 6.629999999999999609e-04 -6.909999999999999910e-04 4.400000000000000157e-04 -2.882000000000000013e-03 2.266999999999999918e-03 5.400000000000000069e-04
7.349999999999999763e-04 -8.099999999999999561e-04 -7.969999999999999654e-04 6.859999999999999779e-04 -4.360000000000000269e-04 -1.289999999999999914e-04 1.949999999999999965e-04 -5.379999999999999583e-04 -8.899999999999999491e-05 6.710000000000000469e-04 -7.179999999999999967e-04 4.970000000000000459e-04 -2.746000000000000177e-03 2.105000000000000100e-03 5.169999999999999899e-04
6.009999999999999717e-04 -5.869999999999999567e-04 -4.910000000000000085e-04 7.089999999999999948e-04 -4.360000000000000269e-04 -1.230000000000000082e-04 1.430000000000000064e-04 -6.239999999999999887e-04 -8.399999999999999535e-05 5.869999999999999567e-04 -5.619999999999999996e-04 2.220000000000000022e-04 -2.494000000000000123e-03 1.809999999999999977e-03 4.749999999999999990e-04
4.629999999999999784e-04 -3.620000000000000171e-04 -1.859999999999999945e-04 5.829999999999999679e-04 -4.159999999999999744e-04 -1.240000000000000054e-04 1.359999999999999989e-04 -6.059999999999999849e-04 -8.000000000000000654e-05 5.029999999999999749e-04 -4.130000000000000099e-04 -2.799999999999999958e-05 -2.137000000000000011e-03 1.405999999999999915e-03 4.200000000000000174e-04
3.669999999999999760e-04 -2.190000000000000106e-04 1.999999999999999909e-06 2.039999999999999984e-04 -3.620000000000000171e-04 -1.379999999999999933e-04 2.280000000000000126e-04 -3.669999999999999760e-04 -8.200000000000000095e-05 4.499999999999999877e-04 -3.440000000000000132e-04 -1.289999999999999914e-04 -1.716999999999999993e-03 8.949999999999999623e-04 3.409999999999999945e-04
2.590000000000000071e-04 -5.700000000000000314e-05 2.100000000000000087e-04 -1.979999999999999881e-04 -3.069999999999999812e-04 -1.510000000000000112e-04 3.249999999999999851e-04 -1.150000000000000035e-04 -8.100000000000000375e-05 3.899999999999999929e-04 -2.610000000000000015e-04 -2.410000000000000033e-04 -1.239000000000000084e-03 3.449999999999999833e-04 2.590000000000000071e-04
1.019999999999999992e-04 1.869999999999999917e-04 5.259999999999999919e-04 -4.519999999999999821e-04 -2.629999999999999959e-04 -1.520000000000000084e-04 3.519999999999999908e-04 1.099999999999999971e-05 -7.499999999999999343e-05 2.910000000000000260e-04 -1.069999999999999988e-04 -4.730000000000000046e-04 -7.439999999999999782e-04 -2.220000000000000022e-04 1.740000000000000010e-04
-4.300000000000000165e-05 3.989999999999999949e-04 7.879999999999999635e-04 -7.119999999999999593e-04 -2.100000000000000087e-04 -1.520000000000000084e-04 3.699999999999999947e-04 1.559999999999999972e-04 -6.899999999999999667e-05 1.910000000000000077e-04 3.199999999999999855e-05 -6.620000000000000450e-04 -3.530000000000000152e-04 -6.700000000000000226e-04 9.000000000000000567e-05
-1.379999999999999933e-04 5.419999999999999471e-04 9.749999999999999552e-04 -9.290000000000000297e-04 -1.789999999999999870e-04 -1.479999999999999925e-04 4.070000000000000267e-04 2.730000000000000222e-04 -6.000000000000000152e-05 1.289999999999999914e-04 1.200000000000000030e-04 -7.799999999999999859e-04 2.110000000000000059e-04 -1.242999999999999964e-03 2.099999999999999884e-05
-2.719999999999999979e-04 6.790000000000000245e-04 1.072000000000000036e-03 -1.043000000000000090e-03 -1.069999999999999988e-04 -1.350000000000000017e-04 3.409999999999999945e-04 4.009999999999999893e-04 -5.300000000000000078e-05 6.000000000000000152e-06 2.320000000000000014e-04 -8.390000000000000105e-04 1.949999999999999965e-04 -1.348000000000000023e-03 -7.499999999999999343e-05
-3.197599999999999748e-02 1.593120000000000092e-01 1.334359999999999991e-01 1.376529999999999976e-01 -9.475200000000000289e-02 4.569000000000000145e-02 1.079199999999999951e-02 -2.285270000000000079e-01 -8.267999999999999308e-03 -2.592889999999999917e-01 4.951280000000000125e-01 -8.122329999999999828e-01 1.423969999999999958e-01 -3.315270000000000161e-01 6.413759999999999462e-01
-2.804500000000000048e-02 1.505479999999999874e-01 1.212120000000000003e-01 1.265259999999999996e-01 -9.142100000000000226e-02 4.349200000000000288e-02 1.521400000000000009e-02 -2.133029999999999926e-01 -9.239999999999999949e-03 -2.422989999999999866e-01 4.622780000000000222e-01 -7.545619999999999550e-01 1.279740000000000044e-01 -3.081320000000000170e-01 5.985030000000000072e-01
-2.156699999999999937e-02 1.355429999999999968e-01 1.008990000000000026e-01 1.087560000000000054e-01 -8.555000000000000104e-02 3.967099999999999793e-02 2.214500000000000149e-02 -1.876160000000000050e-01 -1.073499999999999975e-02 -2.093180000000000041e-01 3.986930000000000196e-01 -6.429660000000000375e-01 9.964800000000000046e-02 -2.614679999999999782e-01 5.132280000000000175e-01
-1.194800000000000029e-02 1.133170000000000011e-01 7.085500000000000131e-02 8.173199999999999910e-02 -7.684699999999999864e-02 3.402399999999999869e-02 3.246000000000000274e-02 -1.496830000000000105e-01 -1.291800000000000066e-02 -1.609770000000000090e-01 3.055200000000000138e-01 -4.794260000000000188e-01 5.837400000000000228e-02 -1.926499999999999879e-01 3.874879999999999991e-01
-1.399999999999999979e-05 8.531999999999999307e-02 3.359199999999999686e-02 4.765599999999999697e-02 -6.568200000000000427e-02 2.684800000000000034e-02 4.503700000000000064e-02 -1.022079999999999933e-01 -1.550799999999999922e-02 -9.904000000000000303e-02 1.862920000000000131e-01 -2.701819999999999777e-01 6.027000000000000239e-03 -1.041190000000000032e-01 2.254259999999999875e-01
1.310599999999999959e-02 5.378800000000000248e-02 -7.441999999999999831e-03 9.671000000000000776e-03 -5.272500000000000103e-02 1.866900000000000157e-02 5.838200000000000334e-02 -4.918299999999999755e-02 -1.820000000000000090e-02 -2.727100000000000010e-02 4.828600000000000253e-02 -2.814900000000000041e-02 -5.429099999999999898e-02 -2.590000000000000071e-04 3.493799999999999684e-02
2.631800000000000112e-02 2.081600000000000117e-02 -4.884200000000000347e-02 -2.928599999999999953e-02 -3.864200000000000274e-02 1.004000000000000031e-02 7.105799999999999617e-02 5.478000000000000230e-03 -2.060100000000000126e-02 4.952000000000000152e-02 -9.917800000000000227e-02 2.300079999999999902e-01 -1.179739999999999955e-01 1.114509999999999945e-01 -1.706689999999999874e-01
3.888599999999999696e-02 -1.214999999999999934e-02 -8.814700000000000313e-02 -6.755099999999999993e-02 -2.389399999999999857e-02 1.361999999999999929e-03 8.210499999999999743e-02 5.903900000000000120e-02 -2.241299999999999890e-02 1.251770000000000105e-01 -2.441059999999999897e-01 4.827649999999999997e-01 -1.789350000000000107e-01 2.210570000000000035e-01 -3.732869999999999799e-01
4.958900000000000113e-02 -4.273099999999999815e-02 -1.217020000000000046e-01 -1.017160000000000009e-01 -9.239000000000000684e-03 -6.780999999999999701e-03 8.990700000000000081e-02 1.070900000000000046e-01 -2.325299999999999936e-02 1.919490000000000085e-01 -3.714330000000000132e-01 7.029100000000000348e-01 -2.299940000000000040e-01 3.163259999999999961e-01 -5.508999999999999453e-01
5.762199999999999961e-02 -6.936000000000000498e-02 -1.470360000000000000e-01 -1.298420000000000130e-01 4.791000000000000120e-03 -1.394699999999999933e-02 9.345499999999999641e-02 1.467469999999999886e-01 -2.281899999999999901e-02 2.423790000000000111e-01 -4.666790000000000105e-01 8.643690000000000540e-01 -2.639500000000000179e-01 3.845759999999999734e-01 -6.801719999999999988e-01
-2.604909999999999726e-01 1.012440000000000007e-01 3.292030000000000234e-01 7.365899999999999670e-01 -1.262639999999999874e-01 2.689300000000000024e-02 -1.475130000000000052e-01 -1.180210000000000009e-01 1.179280000000000050e-01 -1.858200000000000129e-01 3.217639999999999945e-01 -5.847649999999999793e-01 -1.430279999999999885e-01 -1.791049999999999864e-01 1.107510000000000022e-01
-2.479500000000000037e-01 8.787899999999999878e-02 3.056260000000000088e-01 6.838340000000000529e-01 -1.190859999999999974e-01 2.377699999999999952e-02 -1.402150000000000063e-01 -1.070569999999999994e-01 1.152330000000000021e-01 -1.736699999999999910e-01 2.986840000000000050e-01 -5.424919999999999742e-01 -1.219930000000000042e-01 -1.605800000000000005e-01 9.766299999999999981e-02
-2.246430000000000093e-01 6.335599999999999565e-02 2.621729999999999894e-01 5.829649999999999554e-01 -1.054120000000000057e-01 1.798100000000000045e-02 -1.277069999999999872e-01 -8.887200000000000655e-02 1.101550000000000029e-01 -1.506109999999999949e-01 2.545239999999999725e-01 -4.617430000000000145e-01 -8.036200000000000288e-02 -1.240409999999999985e-01 7.143499999999999850e-02
-1.907409999999999939e-01 2.783899999999999916e-02 1.991690000000000127e-01 4.365459999999999896e-01 -8.551100000000000367e-02 9.599999999999999159e-03 -1.090720000000000023e-01 -6.158500000000000085e-02 1.026829999999999965e-01 -1.171050000000000008e-01 1.904059999999999919e-01 -3.444590000000000152e-01 -1.995600000000000152e-02 -7.159100000000000186e-02 3.310300000000000048e-02
-1.481000000000000094e-01 -1.618100000000000094e-02 1.205309999999999993e-01 2.519589999999999885e-01 -6.032699999999999868e-02 -9.009999999999999997e-04 -8.550399999999999667e-02 -2.739000000000000115e-02 9.298199999999999521e-02 -7.490700000000000136e-02 1.096799999999999997e-01 -1.968169999999999920e-01 5.633500000000000313e-02 -6.095999999999999856e-03 -1.577800000000000036e-02
-9.953900000000000248e-02 -6.516600000000000170e-02 3.207200000000000328e-02 4.152900000000000341e-02 -3.155000000000000165e-02 -1.267500000000000050e-02 -5.861600000000000144e-02 1.101700000000000075e-02 8.141600000000000226e-02 -2.699999999999999969e-02 1.778199999999999920e-02 -2.879800000000000068e-02 1.434580000000000022e-01 6.766600000000000392e-02 -7.205400000000000693e-02
-4.836000000000000021e-02 -1.148030000000000023e-01 -5.928300000000000236e-02 -1.790120000000000045e-01 -1.258000000000000004e-03 -2.469500000000000167e-02 -3.028700000000000142e-02 5.030500000000000249e-02 6.836799999999999822e-02 2.298599999999999949e-02 -7.837500000000000022e-02 1.469159999999999910e-01 2.345049999999999912e-01 1.438460000000000016e-01 -1.312719999999999998e-01
2.296999999999999997e-03 -1.608890000000000042e-01 -1.468820000000000126e-01 -3.915489999999999804e-01 2.820699999999999943e-02 -3.570700000000000263e-02 -1.936000000000000004e-03 8.804099999999999426e-02 5.417199999999999793e-02 7.098500000000000643e-02 -1.710260000000000113e-01 3.160740000000000216e-01 3.201959999999999806e-01 2.154260000000000064e-01 -1.875709999999999877e-01
4.921899999999999886e-02 -1.993350000000000122e-01 -2.241059999999999997e-01 -5.769640000000000324e-01 5.432000000000000023e-02 -4.440399999999999903e-02 2.515500000000000028e-02 1.222049999999999942e-01 3.921199999999999686e-02 1.126270000000000049e-01 -2.520100000000000118e-01 4.635770000000000168e-01 3.898760000000000003e-01 2.745810000000000195e-01 -2.341129999999999878e-01
8.902100000000000291e-02 -2.255540000000000045e-01 -2.837549999999999795e-01 -7.147320000000000340e-01 7.445300000000000529e-02 -4.939199999999999841e-02 4.918000000000000149e-02 1.496300000000000130e-01 2.391400000000000123e-02 1.434130000000000127e-01 -3.126410000000000022e-01 5.734310000000000240e-01 4.332079999999999820e-01 3.139259999999999828e-01 -2.640529999999999822e-01
-8.195900000000000407e-02 1.726270000000000027e-01 -1.374430000000000096e-01 7.702269999999999950e-01 -1.754809999999999981e-01 5.718999999999999778e-02 -2.405029999999999946e-01 -6.802340000000000053e-01 -1.574100000000000152e-02 -6.934500000000000386e-02 4.749799999999999855e-02 2.867069999999999896e-01 -3.787340000000000151e-01 6.352370000000000516e-01 -1.905370000000000119e-01
-7.971399999999999320e-02 1.681570000000000009e-01 -1.344619999999999982e-01 7.139219999999999455e-01 -1.678459999999999952e-01 5.368699999999999861e-02 -2.186309999999999920e-01 -6.322419999999999707e-01 -1.608899999999999914e-02 -7.101999999999999980e-02 5.252099999999999824e-02 2.687499999999999889e-01 -3.445949999999999847e-01 5.786099999999999577e-01 -1.716229999999999978e-01
-7.680299999999999627e-02 1.618860000000000021e-01 -1.258869999999999989e-01 6.058689999999999909e-01 -1.528809999999999891e-01 4.687299999999999800e-02 -1.772289999999999976e-01 -5.405729999999999702e-01 -1.676700000000000065e-02 -7.527300000000000657e-02 6.417899999999999994e-02 2.307869999999999922e-01 -2.772279999999999744e-01 4.675549999999999984e-01 -1.350399999999999934e-01
-7.193800000000000194e-02 1.516820000000000113e-01 -1.150240000000000012e-01 4.493369999999999864e-01 -1.313030000000000030e-01 3.703000000000000042e-02 -1.173479999999999940e-01 -4.082180000000000253e-01 -1.764800000000000049e-02 -8.016700000000000215e-02 7.871699999999999531e-02 1.800049999999999983e-01 -1.804550000000000043e-01 3.091590000000000171e-01 -8.412000000000000033e-02
-6.515600000000000558e-02 1.375480000000000036e-01 -1.021240000000000064e-01 2.513059999999999738e-01 -1.038800000000000001e-01 2.455799999999999997e-02 -4.198699999999999655e-02 -2.412320000000000020e-01 -1.871499999999999900e-02 -8.468499999999999639e-02 9.418400000000000383e-02 1.200589999999999991e-01 -5.993899999999999922e-02 1.133080000000000059e-01 -2.358899999999999886e-02
-5.673899999999999777e-02 1.200299999999999978e-01 -8.800700000000000189e-02 2.527799999999999839e-02 -7.217600000000000404e-02 1.029700000000000060e-02 4.328800000000000009e-02 -5.118999999999999939e-02 -1.981000000000000122e-02 -8.788799999999999391e-02 1.085600000000000037e-01 5.614899999999999752e-02 7.587700000000000000e-02 -1.053970000000000046e-01 4.164899999999999852e-02
-4.740599999999999675e-02 1.003980000000000011e-01 -7.227600000000000691e-02 -2.105430000000000079e-01 -3.818599999999999772e-02 -4.701999999999999583e-03 1.309659999999999991e-01 1.465160000000000073e-01 -2.074600000000000055e-02 -8.912899999999999989e-02 1.203759999999999969e-01 -7.910000000000000364e-03 2.160799999999999943e-01 -3.292129999999999779e-01 1.059680000000000066e-01
-3.652299999999999991e-02 7.763100000000000556e-02 -5.740800000000000070e-02 -4.381570000000000187e-01 -3.818999999999999912e-03 -1.939199999999999952e-02 2.139369999999999883e-01 3.373740000000000072e-01 -2.134300000000000086e-02 -8.683899999999999952e-02 1.264379999999999948e-01 -6.532999999999999918e-02 3.476480000000000126e-01 -5.376009999999999955e-01 1.638000000000000012e-01
-2.474799999999999917e-02 5.291799999999999976e-02 -4.334099999999999758e-02 -6.334309999999999663e-01 2.842799999999999841e-02 -3.238499999999999712e-02 2.825630000000000086e-01 5.019930000000000225e-01 -2.132699999999999874e-02 -8.071299999999999308e-02 1.258019999999999972e-01 -1.128379999999999939e-01 4.564710000000000156e-01 -7.090499999999999581e-01 2.101959999999999940e-01
-1.215399999999999987e-02 2.644699999999999829e-02 -3.094099999999999975e-02 -7.753449999999999509e-01 5.643299999999999705e-02 -4.245999999999999774e-02 3.286850000000000049e-01 6.239000000000000101e-01 -2.047699999999999868e-02 -7.011299999999999477e-02 1.170100000000000029e-01 -1.466260000000000063e-01 5.293149999999999800e-01 -8.238050000000000095e-01 2.408589999999999898e-01
2.670029999999999903e-01 -3.279329999999999745e-01 -4.500919999999999921e-01 -8.282389999999999475e-01 1.256720000000000059e-01 -1.684799999999999839e-02 2.547320000000000140e-01 4.779439999999999800e-01 -7.370799999999999574e-02 1.012440000000000007e-01 -2.597490000000000077e-01 3.665680000000000049e-01 2.048419999999999963e-01 -1.536999999999999998e-02 1.740569999999999895e-01
2.482090000000000130e-01 -2.977589999999999959e-01 -4.084809999999999830e-01 -7.517509999999999470e-01 1.156009999999999954e-01 -1.314799999999999996e-02 2.330760000000000054e-01 4.358440000000000092e-01 -7.181099999999999983e-02 9.242899999999999727e-02 -2.410160000000000080e-01 3.337080000000000046e-01 1.775500000000000134e-01 -1.215199999999999961e-02 1.595920000000000116e-01
2.139079999999999870e-01 -2.429419999999999913e-01 -3.328829999999999845e-01 -6.115810000000000413e-01 9.711500000000000687e-02 -6.398000000000000041e-03 1.938680000000000125e-01 3.595840000000000147e-01 -6.813099999999999712e-02 7.663999999999999979e-02 -2.071550000000000058e-01 2.747760000000000202e-01 1.268789999999999918e-01 -6.139999999999999625e-03 1.325790000000000024e-01
1.664180000000000104e-01 -1.676650000000000085e-01 -2.290929999999999911e-01 -4.216190000000000215e-01 7.192400000000000182e-02 2.544999999999999953e-03 1.396350000000000091e-01 2.541539999999999910e-01 -6.275699999999999334e-02 5.464200000000000307e-02 -1.597330000000000139e-01 1.926619999999999999e-01 6.068699999999999789e-02 1.667999999999999995e-03 9.655800000000000494e-02
1.099640000000000062e-01 -7.904100000000000015e-02 -1.068899999999999989e-01 -2.012680000000000025e-01 4.248199999999999893e-02 1.264999999999999979e-02 7.524899999999999645e-02 1.289190000000000058e-01 -5.584399999999999781e-02 2.839699999999999863e-02 -1.025520000000000043e-01 9.442499999999999505e-02 -1.235299999999999940e-02 1.040899999999999985e-02 5.566999999999999726e-02
4.959700000000000220e-02 1.419199999999999975e-02 2.165399999999999964e-02 2.691999999999999948e-02 1.162700000000000018e-02 2.262099999999999875e-02 6.885999999999999760e-03 -3.968000000000000173e-03 -4.769199999999999828e-02 4.009999999999999893e-04 -4.073899999999999744e-02 -1.056900000000000027e-02 -8.385800000000000198e-02 1.895900000000000016e-02 1.404999999999999999e-02
-9.974000000000000227e-03 1.040949999999999931e-01 1.455599999999999949e-01 2.436550000000000105e-01 -1.816800000000000012e-02 3.139800000000000230e-02 -5.969599999999999906e-02 -1.333419999999999883e-01 -3.860999999999999849e-02 -2.691699999999999995e-02 2.083499999999999935e-02 -1.134249999999999980e-01 -1.470690000000000053e-01 2.646799999999999847e-02 -2.485300000000000009e-02
-6.495099999999999485e-02 1.842769999999999964e-01 2.560250000000000026e-01 4.340319999999999734e-01 -4.495600000000000290e-02 3.821700000000000097e-02 -1.198509999999999992e-01 -2.501039999999999930e-01 -2.887400000000000036e-02 -5.163999999999999840e-02 7.820100000000000662e-02 -2.069290000000000018e-01 -1.976739999999999886e-01 3.234900000000000275e-02 -5.834999999999999909e-02
-1.121219999999999994e-01 2.494899999999999896e-01 3.458109999999999795e-01 5.868539999999999868e-01 -6.724299999999999722e-02 4.251699999999999924e-02 -1.696680000000000132e-01 -3.465940000000000132e-01 -1.878700000000000161e-02 -7.204699999999999993e-02 1.277419999999999944e-01 -2.846250000000000169e-01 -2.332049999999999956e-01 3.619700000000000001e-02 -8.479000000000000425e-02
-1.490299999999999958e-01 2.958189999999999986e-01 4.094439999999999746e-01 6.940600000000000103e-01 -8.391700000000000548e-02 4.396200000000000108e-02 -2.060309999999999919e-01 -4.167270000000000141e-01 -8.684000000000000746e-03 -8.678700000000000303e-02 1.665860000000000118e-01 -3.414420000000000233e-01 -2.525629999999999820e-01 3.792999999999999844e-02 -1.031610000000000027e-01
1.331360000000000043e-01 -8.493299999999999461e-02 1.891569999999999918e-01 -1.265463999999999922e+00 2.393780000000000074e-01 4.971999999999999857e-03 2.347400000000000042e-01 6.103730000000000544e-01 -6.245900000000000063e-02 -5.485399999999999998e-02 -4.316999999999999657e-03 -4.247040000000000259e-01 9.518069999999999586e-01 -7.596779999999999644e-01 2.929209999999999869e-01
1.304960000000000009e-01 -8.497599999999999598e-02 1.812239999999999962e-01 -1.137696999999999958e+00 2.237119999999999942e-01 1.140599999999999947e-02 2.076070000000000138e-01 5.580990000000000117e-01 -6.048400000000000304e-02 -4.943100000000000271e-02 -1.378700000000000064e-02 -3.961950000000000194e-01 8.475740000000000496e-01 -6.816719999999999446e-01 2.637220000000000120e-01
1.270439999999999903e-01 -8.750199999999999645e-02 1.629720000000000057e-01 -9.041780000000000372e-01 1.942770000000000052e-01 2.296600000000000030e-02 1.588880000000000015e-01 4.623970000000000025e-01 -5.655799999999999716e-02 -3.754500000000000198e-02 -3.432000000000000328e-02 -3.371950000000000225e-01 6.557709999999999928e-01 -5.345440000000000191e-01 2.079030000000000045e-01
1.209940000000000043e-01 -8.924300000000000288e-02 1.391429999999999889e-01 -5.947289999999999521e-01 1.545729999999999882e-01 3.756000000000000311e-02 9.208500000000000019e-02 3.304889999999999772e-01 -5.095600000000000129e-02 -2.163699999999999998e-02 -6.180900000000000283e-02 -2.558250000000000246e-01 4.032109999999999861e-01 -3.335549999999999904e-01 1.298640000000000072e-01
1.122240000000000043e-01 -8.946700000000000486e-02 1.112339999999999995e-01 -2.464709999999999956e-01 1.081889999999999935e-01 5.293899999999999995e-02 1.434900000000000064e-02 1.747420000000000084e-01 -4.375899999999999929e-02 -2.827000000000000086e-03 -9.379400000000000237e-02 -1.575010000000000021e-01 1.227079999999999976e-01 -9.926500000000000601e-02 3.702799999999999842e-02
1.014039999999999941e-01 -8.831600000000000561e-02 8.031199999999999450e-02 1.019589999999999941e-01 5.938100000000000322e-02 6.670800000000000340e-02 -6.552600000000000091e-02 1.110799999999999982e-02 -3.536000000000000254e-02 1.767600000000000074e-02 -1.277739999999999987e-01 -4.862199999999999855e-02 -1.558690000000000075e-01 1.460120000000000029e-01 -6.315700000000000480e-02
8.903300000000000103e-02 -8.580899999999999639e-02 4.769299999999999928e-02 4.206119999999999859e-01 1.168800000000000047e-02 7.723499999999999810e-02 -1.397319999999999951e-01 -1.459850000000000037e-01 -2.610399999999999873e-02 3.825200000000000128e-02 -1.604420000000000013e-01 6.282300000000000384e-02 -4.084990000000000010e-01 3.806320000000000259e-01 -1.617860000000000131e-01
7.430799999999999905e-02 -7.981800000000000006e-02 1.741799999999999946e-02 6.912840000000000096e-01 -3.240300000000000125e-02 8.362400000000000388e-02 -2.034380000000000077e-01 -2.871890000000000276e-01 -1.627899999999999833e-02 5.625600000000000045e-02 -1.863140000000000074e-01 1.650830000000000075e-01 -6.187399999999999567e-01 5.856639999999999624e-01 -2.499230000000000063e-01
5.761800000000000255e-02 -7.024600000000000288e-02 -8.994999999999999524e-03 9.000240000000000462e-01 -7.091100000000000181e-02 8.528099999999999570e-02 -2.515720000000000178e-01 -4.026080000000000214e-01 -6.296000000000000381e-03 6.994499999999999329e-02 -2.016539999999999999e-01 2.492959999999999898e-01 -7.763069999999999693e-01 7.454589999999999828e-01 -3.193840000000000012e-01
3.913699999999999818e-02 -5.692599999999999744e-02 -3.008100000000000010e-02 1.039455000000000018e+00 -1.025279999999999941e-01 8.210699999999999943e-02 -2.809809999999999808e-01 -4.855949999999999989e-01 3.526000000000000054e-03 7.764000000000000068e-02 -2.029390000000000083e-01 3.074270000000000058e-01 -8.757289999999999797e-01 8.480309999999999793e-01 -3.631039999999999823e-01
-6.993000000000000084e-03 2.339029999999999998e-01 4.088209999999999900e-01 6.905400000000000427e-02 2.712900000000000034e-02 1.153769999999999935e-01 8.322300000000000531e-02 2.943959999999999910e-01 -1.776560000000000084e-01 -1.460819999999999896e-01 -1.005199999999999982e-01 -2.216239999999999877e-01 4.049999999999999781e-04 -4.551749999999999963e-01 -1.248419999999999946e-01
7.690000000000000438e-04 2.151889999999999914e-01 3.807260000000000089e-01 6.374599999999999711e-02 2.758299999999999988e-02 1.129359999999999947e-01 7.203500000000000181e-02 2.701200000000000268e-01 -1.733079999999999898e-01 -1.403020000000000100e-01 -1.026379999999999931e-01 -2.075239999999999863e-01 3.357000000000000175e-03 -4.100920000000000121e-01 -1.125659999999999994e-01
1.558599999999999916e-02 1.789729999999999932e-01 3.266490000000000227e-01 5.417099999999999693e-02 2.805900000000000061e-02 1.081499999999999961e-01 5.032199999999999868e-02 2.225900000000000101e-01 -1.648439999999999905e-01 -1.293719999999999870e-01 -1.065500000000000058e-01 -1.811689999999999967e-01 8.911000000000000518e-03 -3.238460000000000227e-01 -8.873000000000000331e-02
3.672399999999999970e-02 1.271799999999999875e-01 2.490070000000000061e-01 3.957700000000000107e-02 2.886299999999999977e-02 1.011480000000000018e-01 2.124699999999999853e-02 1.583170000000000133e-01 -1.524939999999999907e-01 -1.135690000000000033e-01 -1.119210000000000066e-01 -1.431669999999999887e-01 1.575299999999999964e-02 -2.027329999999999965e-01 -5.425900000000000167e-02
6.205200000000000299e-02 6.380299999999999860e-02 1.536500000000000088e-01 2.257599999999999885e-02 2.940999999999999864e-02 9.196000000000000008e-02 -1.277900000000000043e-02 8.190000000000000058e-02 -1.365580000000000127e-01 -9.403699999999999559e-02 -1.173889999999999934e-01 -9.715600000000000624e-02 2.187199999999999908e-02 -5.813900000000000318e-02 -1.174700000000000050e-02
8.941399999999999348e-02 -6.732000000000000137e-03 4.702800000000000036e-02 3.872000000000000008e-03 2.953000000000000069e-02 8.081299999999999595e-02 -4.792300000000000032e-02 8.930000000000000221e-04 -1.176289999999999975e-01 -7.177300000000000346e-02 -1.221560000000000007e-01 -4.596399999999999791e-02 2.617399999999999935e-02 9.833300000000000374e-02 3.610499999999999821e-02
1.160790000000000016e-01 -7.906699999999999839e-02 -6.305800000000000294e-02 -1.539699999999999923e-02 2.883600000000000052e-02 6.787799999999999390e-02 -8.069600000000000384e-02 -7.761800000000000643e-02 -9.636000000000000121e-02 -4.798700000000000188e-02 -1.252479999999999982e-01 6.912999999999999874e-03 2.765899999999999956e-02 2.527309999999999834e-01 8.475199999999999401e-02
1.387039999999999940e-01 -1.466159999999999963e-01 -1.671320000000000028e-01 -3.332299999999999846e-02 2.708899999999999850e-02 5.347699999999999676e-02 -1.081639999999999963e-01 -1.477380000000000082e-01 -7.325399999999999967e-02 -2.403399999999999981e-02 -1.249839999999999979e-01 5.717599999999999766e-02 2.666699999999999973e-02 3.920569999999999888e-01 1.302540000000000087e-01
1.539020000000000110e-01 -2.030029999999999890e-01 -2.559279999999999888e-01 -4.868299999999999711e-02 2.392299999999999982e-02 3.773499999999999771e-02 -1.277069999999999872e-01 -2.038810000000000067e-01 -4.925000000000000211e-02 -1.273999999999999959e-03 -1.205470000000000014e-01 1.010429999999999939e-01 2.329300000000000120e-02 5.027169999999999694e-01 1.660550000000000082e-01
1.588809999999999945e-01 -2.424509999999999998e-01 -3.211040000000000005e-01 -6.028900000000000231e-02 1.937699999999999839e-02 2.129599999999999896e-02 -1.375979999999999981e-01 -2.424119999999999886e-01 -2.467400000000000149e-02 1.925899999999999834e-02 -1.103220000000000034e-01 1.350129999999999941e-01 1.966899999999999898e-02 5.756630000000000358e-01 1.900529999999999997e-01
1.837300000000000044e-01 -3.392919999999999825e-01 -4.671589999999999909e-01 -1.449955000000000105e+00 1.514040000000000108e-01 -1.407599999999999962e-01 4.115349999999999842e-01 7.404450000000000198e-01 -1.165700000000000069e-02 1.053069999999999978e-01 -1.283440000000000136e-01 2.030619999999999925e-01 7.486530000000000129e-01 -4.235729999999999773e-01 4.167420000000000013e-01
1.664210000000000134e-01 -3.104990000000000250e-01 -4.283330000000000193e-01 -1.303770000000000095e+00 1.344629999999999992e-01 -1.317859999999999865e-01 3.760149999999999881e-01 6.735179999999999501e-01 -1.146100000000000070e-02 9.971299999999999608e-02 -1.200070000000000026e-01 1.887010000000000076e-01 6.608749999999999902e-01 -3.768250000000000210e-01 3.830740000000000256e-01
1.338979999999999893e-01 -2.562999999999999723e-01 -3.551989999999999870e-01 -1.034850000000000048e+00 1.033599999999999935e-01 -1.150520000000000015e-01 3.094000000000000083e-01 5.480699999999999461e-01 -1.106599999999999945e-02 8.905599999999999627e-02 -1.041470000000000035e-01 1.613880000000000037e-01 5.022799999999999487e-01 -2.906710000000000127e-01 3.201269999999999949e-01
8.917300000000000226e-02 -1.815249999999999919e-01 -2.541240000000000165e-01 -6.807269999999999710e-01 6.252199999999999425e-02 -9.250500000000000389e-02 2.187630000000000130e-01 3.774159999999999737e-01 -1.045199999999999949e-02 7.383000000000000673e-02 -8.137400000000000189e-02 1.221320000000000044e-01 2.984879999999999756e-01 -1.766419999999999935e-01 2.349320000000000019e-01
3.697399999999999992e-02 -9.372300000000000075e-02 -1.351880000000000026e-01 -2.868620000000000059e-01 1.721299999999999913e-02 -6.652700000000000280e-02 1.140339999999999965e-01 1.802120000000000111e-01 -9.629000000000000406e-03 5.525499999999999856e-02 -5.358700000000000269e-02 7.417300000000000282e-02 8.052600000000000036e-02 -5.017100000000000032e-02 1.372240000000000126e-01
-1.804599999999999954e-02 -5.360000000000000181e-04 -8.793999999999999734e-03 1.052809999999999996e-01 -2.758100000000000135e-02 -3.941100000000000159e-02 4.944999999999999743e-03 -2.487199999999999828e-02 -8.666999999999999357e-03 3.443100000000000327e-02 -2.248199999999999851e-02 2.053100000000000064e-02 -1.271680000000000033e-01 7.538999999999999868e-02 3.606899999999999690e-02
-7.116300000000000403e-02 9.040199999999999625e-02 1.149300000000000044e-01 4.637859999999999761e-01 -6.811100000000000487e-02 -1.296100000000000030e-02 -9.940699999999999537e-02 -2.207479999999999998e-01 -7.558999999999999747e-03 1.281999999999999980e-02 9.676000000000000573e-03 -3.493700000000000278e-02 -3.066630000000000189e-01 1.884220000000000061e-01 -5.964200000000000057e-02
-1.185260000000000064e-01 1.726659999999999862e-01 2.271789999999999921e-01 7.668449999999999989e-01 -1.018270000000000008e-01 1.129999999999999928e-02 -1.918569999999999998e-01 -3.935730000000000062e-01 -6.414999999999999696e-03 -8.378999999999999296e-03 4.094099999999999823e-02 -8.882500000000000118e-02 -4.488920000000000132e-01 2.814900000000000180e-01 -1.435309999999999919e-01