-3.867925619918282099e-01 -4.056980931317686451e-04 -2.559018741292694581e-04 -4.056980931317686451e-04 -3.861434450428174459e-01 2.933509288798942277e-04 -2.559018741292694581e-04 2.933509288798942277e-04 -3.857564714770609360e-01
-3.877287883605938790e-01 -3.620075292560397291e-04 -2.371773467539570733e-04 -3.620075292560397291e-04 -3.871795355575847197e-01 2.683848923794776966e-04 -2.371773467539570733e-04 2.683848923794776966e-04 -3.869173921743302991e-01
-3.867114223732018852e-01 -2.871094197547901356e-04 -2.059698011284363957e-04 -2.871094197547901356e-04 -3.863306903165705242e-01 2.309358376288529269e-04 -2.059698011284363957e-04 2.309358376288529269e-04 -3.862869997526948151e-01
-3.861184790063170169e-01 -1.934867828782281301e-04 -1.622792372527074526e-04 -1.934867828782281301e-04 -3.859874073146897788e-01 1.810037646280198646e-04 -1.622792372527074526e-04 1.810037646280198646e-04 -3.862433091888190506e-01
-3.861496865519425392e-01 -6.241509125104134149e-05 -1.061056551267702710e-04 -6.241509125104134149e-05 -3.862932412618199085e-01 1.123471642518744038e-04 -1.061056551267702710e-04 1.123471642518744038e-04 -3.869111506652052057e-01
-3.862620337161943862e-01 7.489810950124960707e-05 -4.369056387572892955e-05 7.489810950124960707e-05 -3.867363884097022586e-01 4.993207300083306912e-05 -4.369056387572892955e-05 4.993207300083306912e-05 -3.877412713788440102e-01
-3.859374752416889764e-01 2.122113102535405421e-04 1.248301825020826728e-05 2.122113102535405421e-04 -3.867176638823269785e-01 -1.872452737531240177e-05 1.248301825020826728e-05 -1.872452737531240177e-05 -3.881220034354753712e-01
-3.856441243128090890e-01 3.370414927556231979e-04 5.617358212593720192e-05 3.370414927556231979e-04 -3.866802148275763629e-01 -8.113961862635372631e-05 5.617358212593720192e-05 -8.113961862635372631e-05 -3.884278373826055564e-01
-3.854943280938065708e-01 4.306641296321851763e-04 9.362263687656199190e-05 4.306641296321851763e-04 -3.867551129370776497e-01 -1.185886733769785366e-04 9.362263687656199190e-05 -1.185886733769785366e-04 -3.887898449118615263e-01
-3.854381545116806196e-01 4.805962026330182386e-04 1.061056551267702710e-04 4.805962026330182386e-04 -3.867488714279525008e-01 -1.373132007522909486e-04 1.061056551267702710e-04 -1.373132007522909486e-04 -3.888772260396129998e-01
-6.033727524751354432e-01 1.840891131918398760e-01 -2.269660709671768029e-01 1.840891131918398760e-01 -9.706352730377747484e-01 3.454145535085196839e-01 -2.269660709671768029e-01 3.454145535085196839e-01 -1.262235987978812757e+00
-5.874704246252360207e-01 1.753963565244983092e-01 -2.131917918563150938e-01 1.753963565244983092e-01 -9.362447156884182720e-01 3.204132051410988336e-01 -2.131917918563150938e-01 3.204132051410988336e-01 -1.199980889413148288e+00
-5.499393832276633365e-01 1.581978535335487601e-01 -1.857335144901871293e-01 1.581978535335487601e-01 -8.628012396614499480e-01 2.704492002015123631e-01 -1.857335144901871293e-01 2.704492002015123631e-01 -1.070363375308128973e+00
-4.994594876846737974e-01 1.331578133708726519e-01 -1.460357325583215848e-01 1.331578133708726519e-01 -7.608548077964624179e-01 1.985018069244129102e-01 -1.460357325583215848e-01 1.985018069244129102e-01 -8.876736153780200311e-01
-4.394614105088977540e-01 1.014821303219246990e-01 -9.582023094957610454e-02 1.014821303219246990e-01 -6.363833024603887667e-01 1.076276771349636563e-01 -9.582023094957610454e-02 1.076276771349636563e-01 -6.611073596284805509e-01
-3.710865596603645233e-01 6.477651388979688285e-02 -3.808562379623100375e-02 6.477651388979688285e-02 -4.946165646452275189e-01 3.669271916704273245e-03 -3.808562379623100375e-02 3.669271916704273245e-03 -4.027751399743975669e-01
-2.991262691181800215e-01 2.545920127794107715e-02 2.309255313482953126e-02 2.545920127794107715e-02 -3.451824027369883030e-01 -1.057575736976275743e-01 2.309255313482953126e-02 -1.057575736976275743e-01 -1.313328503613343246e-01
-2.308803909204975580e-01 -1.364530646001097317e-02 8.267146919534057448e-02 -1.364530646001097317e-02 -2.010490167787155336e-01 -2.108702841410013129e-01 8.267146919534057448e-02 -2.108702841410013129e-01 1.284245170846495809e-01
-1.708242760518386971e-01 -4.928044989007743237e-02 1.348731496271878272e-01 -4.928044989007743237e-02 -7.292758542356525542e-02 -3.005256223799108173e-01 1.348731496271878272e-01 -3.005256223799108173e-01 3.521662717805572607e-01
-1.247294506377751577e-01 -7.829929633149962376e-02 1.740292464254801774e-01 -7.829929633149962376e-02 2.770332540274439079e-02 -3.639221289056044917e-01 1.740292464254801774e-01 -3.639221289056044917e-01 5.150393839074461910e-01
-1.403378033474824260e+00 2.026610911281702954e-01 -2.719674674052832805e-04 2.026610911281702954e-01 -7.344740473915298828e-01 2.295923458171839071e-01 -2.719674674052832805e-04 2.295923458171839071e-01 -1.213609495384842418e+00
-1.335839445735845565e+00 1.889979635990000906e-01 3.917626613814199563e-03 1.889979635990000906e-01 -7.058268074915067247e-01 2.180207776206781745e-01 3.917626613814199563e-03 2.180207776206781745e-01 -1.155499113182580251e+00
-1.199473662495658344e+00 1.616717085406597088e-01 1.258820849133025430e-02 1.616717085406597088e-01 -6.465702766766080467e-01 1.950460020408223138e-01 1.258820849133025430e-02 1.950460020408223138e-01 -1.037711298132530269e+00
-1.006862416829702234e+00 1.228839673559538326e-01 2.492387576292703563e-02 1.228839673559538326e-01 -5.638015107629334999e-01 1.621249876530018452e-01 2.492387576292703563e-02 1.621249876530018452e-01 -8.716816346974952667e-01
-7.690721944950164035e-01 7.462269272329724590e-02 4.038069349379396628e-02 7.462269272329724590e-02 -4.632771544772282812e-01 1.206175717942431364e-01 4.038069349379396628e-02 1.206175717942431364e-01 -6.676736570640798840e-01
-5.011842391008123343e-01 2.057887170033310606e-02 5.760529976279524234e-02 2.057887170033310606e-02 -3.507538525462375878e-01 7.308801915722458464e-02 5.760529976279524234e-02 7.308801915722458464e-02 -4.386770495088313515e-01
-2.207404522947310210e-01 -3.503847538404732814e-02 7.497884059728036898e-02 -3.503847538404732814e-02 -2.324868567202830194e-01 2.290354600505921379e-02 7.497884059728036898e-02 2.290354600505921379e-02 -1.995334652530095232e-01
4.806053674004791276e-02 -8.757999992039182391e-02 9.026729751499164289e-02 -8.757999992039182391e-02 -1.196009314994186251e-01 -2.621248352515682944e-02 9.026729751499164289e-02 -2.621248352515682944e-02 2.889330570386604985e-02
2.806510001145805511e-01 -1.318912708597811956e-01 1.010229633092815521e-01 -1.318912708597811956e-01 -2.254092271518550253e-02 -7.007695076809465629e-02 1.010229633092815521e-01 -7.007695076809465629e-02 2.257006208669321279e-01
4.551569829504134024e-01 -1.633682675039974386e-01 1.047851799417212904e-01 -1.633682675039974386e-01 4.995135818010369710e-02 -1.047916553576118959e-01 1.047851799417212904e-01 -1.047916553576118959e-01 3.726342828405816987e-01
-1.386660997316172761e+00 -5.442465875662640812e-02 -4.294556013417832191e-02 -5.442465875662640812e-02 -1.211606347446061438e+00 -7.065195915694569284e-02 -4.294556013417832191e-02 -7.065195915694569284e-02 -5.088275688989004480e-03
-1.317542579003701642e+00 -4.056504275635370443e-02 -4.286856226751013799e-02 -4.056504275635370443e-02 -1.166017193889609116e+00 -6.411355697903925455e-02 -4.286856226751013799e-02 -6.411355697903925455e-02 -2.798872453388403375e-02
-1.173716980556427147e+00 -1.269823151136095785e-02 -4.255415431194840142e-02 -1.269823151136095785e-02 -1.069615864821045426e+00 -5.147307386767943638e-02 -4.255415431194840142e-02 -5.147307386767943638e-02 -6.544177017906539773e-02
-9.706222742413199711e-01 2.615360871162570114e-02 -4.157243151192908243e-02 2.615360871162570114e-02 -9.336440487739258165e-01 -3.405872302289235376e-02 -4.157243151192908243e-02 -3.405872302289235376e-02 -1.198535959579137833e-01
-7.192049901030398429e-01 7.391153551256537946e-02 -3.959615293411242187e-02 7.391153551256537946e-02 -7.656026212595081759e-01 -1.386603248916171496e-02 -3.959615293411242187e-02 -1.386603248916171496e-02 -1.869251543147890382e-01
-4.359490880974665195e-01 1.258465965802539055e-01 -3.638149200071583156e-02 1.258465965802539055e-01 -5.747249097890859693e-01 7.532957955703772912e-03 -3.638149200071583156e-02 7.532957955703772912e-03 -2.601116265828957164e-01
-1.381662552471629724e-01 1.772747550257102456e-01 -3.196053115618440604e-02 1.772747550257102456e-01 -3.705650663184023030e-01 2.805288942277418471e-02 -3.196053115618440604e-02 2.805288942277418471e-02 -3.295444528509284821e-01
1.433764442250432813e-01 2.224211708488207651e-01 -2.631402093385108026e-02 2.224211708488207651e-01 -1.741948403589829719e-01 4.608963968979574305e-02 -2.631402093385108026e-02 4.608963968979574305e-02 -3.959679458300132127e-01
3.855219019186965634e-01 2.552094290716880876e-01 -1.986544960039086927e-02 2.552094290716880876e-01 1.918530177815526297e-03 6.027008013451919111e-02 -1.986544960039086927e-02 6.027008013451919111e-02 -4.507647609422024693e-01
5.608588772999242300e-01 2.703523428497638381e-01 -1.307680435581285057e-02 2.703523428497638381e-01 1.398088764027508590e-01 6.945849222358886632e-02 -1.307680435581285057e-02 6.945849222358886632e-02 -4.926323509430262648e-01
7.134838961223964882e-01 -7.101300261501916622e-02 -7.613581639557266689e-02 -7.101300261501916622e-02 4.057232897880084233e-01 1.503008631791595030e-02 -7.613581639557266689e-02 1.503008631791595030e-02 3.227432042279186897e-01
6.220271268095484141e-01 -6.647785808623252191e-02 -7.361299385010888763e-02 -6.647785808623252191e-02 3.434897096312031772e-01 8.933759837465839182e-03 -7.361299385010888763e-02 8.933759837465839182e-03 2.640178314225701817e-01
4.406985143477085698e-01 -5.790026143165568490e-02 -6.882259904025178621e-02 -5.790026143165568490e-02 2.179065713445405561e-01 -2.665287818619376838e-03 -6.882259904025178621e-02 -2.665287818619376838e-03 1.452255378229912186e-01
1.949221739421035104e-01 -4.631308588166677120e-02 -6.188335302696437029e-02 -4.631308588166677120e-02 4.570760847075545918e-02 -1.764788571215012564e-02 -6.188335302696437029e-02 -1.764788571215012564e-02 -1.751729254509082692e-02
-8.997869210385860128e-02 -3.272546045445128005e-02 -5.312767478094303220e-02 -3.272546045445128005e-02 -1.552812116865573966e-01 -3.428070635306659786e-02 -5.312767478094303220e-02 -3.428070635306659786e-02 -2.067942800384036384e-01
-3.906813313639961871e-01 -1.836614813097628418e-02 -4.288798327288417811e-02 -1.836614813097628418e-02 -3.710508039337638841e-01 -5.023681694649394930e-02 -4.288798327288417811e-02 -5.023681694649394930e-02 -4.095698521632096245e-01
-6.828716705530865072e-01 -4.238341876379142503e-03 -3.160354642835092043e-02 -4.238341876379142503e-03 -5.845646960226734690e-01 -6.385412263895018370e-02 -3.160354642835092043e-02 -6.385412263895018370e-02 -6.094783106657591931e-01
-9.448118834088041762e-01 8.898143519176938271e-03 -1.973737638509895018e-02 8.898143519176938271e-03 -7.794631257525842516e-01 -7.361892990315703489e-02 -1.973737638509895018e-02 -7.361892990315703489e-02 -7.908484754989361099e-01
-1.157833083094717219e+00 2.040221432649175215e-02 -7.758421333932128197e-03 2.040221432649175215e-02 -9.408109836543511184e-01 -7.868238315322903520e-02 -7.758421333932128197e-03 -7.868238315322903520e-02 -9.393982030288913210e-01
-1.310401518538270249e+00 2.985241077914664934e-02 3.899986852634589485e-03 2.985241077914664934e-02 -1.059437067768581819e+00 -7.848649340264009233e-02 3.899986852634589485e-03 -7.848649340264009233e-02 -1.046348070797410879e+00
1.073949630498665764e+00 1.976434623199220530e-02 -7.973578112103751891e-02 1.976434623199220530e-02 2.739751482578827724e-01 3.606402619224076400e-02 -7.973578112103751891e-02 3.606402619224076400e-02 -9.510690629202330770e-01
9.372103978332584351e-01 8.019612139490555139e-03 -8.083817493477413185e-02 8.019612139490555139e-03 2.328534361619602755e-01 2.940726354775426502e-02 -8.083817493477413185e-02 2.940726354775426502e-02 -9.125761360724516935e-01
6.714486891986001238e-01 -1.483991672337753830e-02 -8.226765262731172701e-02 -1.483991672337753830e-02 1.457340393324341177e-01 1.642082213758224579e-02 -8.226765262731172701e-02 1.642082213758224579e-02 -8.470563894615231737e-01
3.207784284707555500e-01 -4.572511483460287018e-02 -8.249176565537906514e-02 -4.572511483460287018e-02 3.096394052649223405e-02 -2.247187389540027287e-03 -8.249176565537906514e-02 -2.247187389540027287e-03 -7.499003632399005026e-01
-7.668905536109510424e-02 -8.177702680911025368e-02 -8.058377636237336328e-02 -8.177702680911025368e-02 -1.022682261051046232e-01 -2.475540393814040438e-02 -8.058377636237336328e-02 -2.475540393814040438e-02 -6.291458408736739782e-01
-4.840538550811085972e-01 -1.184285925614194379e-01 -7.516872103555724549e-02 -1.184285925614194379e-01 -2.460579334913329530e-01 -4.951080787628080876e-02 -7.516872103555724549e-02 -4.951080787628080876e-02 -4.974279514587484075e-01
-8.692435792401892458e-01 -1.515609780621847980e-01 -6.627688521926408671e-02 -1.515609780621847980e-01 -3.925551685409693903e-01 -7.392701371788688858e-02 -6.627688521926408671e-02 -7.392701371788688858e-02 -3.685387318845644300e-01
-1.200706747751776549e+00 -1.772491767657946582e-01 -5.436255207849526733e-02 -1.772491767657946582e-01 -5.268473292242360495e-01 -9.517535162221683886e-02 -5.436255207849526733e-02 -9.517535162221683886e-02 -2.475055825104705842e-01
-1.461144257692619020e+00 -1.920527508359720914e-01 -4.027977396345332195e-02 -1.920527508359720914e-01 -6.434951317788502045e-01 -1.105604081435959951e-01 -4.027977396345332195e-02 -1.105604081435959951e-01 -1.467274051865704032e-01
-1.638114807450546273e+00 -1.934277145487095229e-01 -2.539745747800898831e-02 -1.934277145487095229e-01 -7.368170080878615469e-01 -1.175139691225500355e-01 -2.539745747800898831e-02 -1.175139691225500355e-01 -7.483558004788957996e-02
-4.586192780042915862e-01 1.614190288900504977e-01 -1.378024320431300298e-01 1.614190288900504977e-01 -1.919645925037726797e-01 -3.038702481167412373e-01 -1.378024320431300298e-01 -3.038702481167412373e-01 -9.435143096547958796e-01
-4.551832179120945399e-01 1.426975544171239785e-01 -1.382193069807862995e-01 1.426975544171239785e-01 -2.033970718546488088e-01 -2.892101461424961273e-01 -1.382193069807862995e-01 -2.892101461424961273e-01 -9.067851011325057664e-01
-4.458982761188414745e-01 1.066505048837260300e-01 -1.391414848731774290e-01 1.066505048837260300e-01 -2.227817564556648366e-01 -2.606415803391741171e-01 -1.391414848731774290e-01 -2.606415803391741171e-01 -8.333772143833991786e-01
-4.346173876543857895e-01 5.653076806096227203e-02 -1.401836722173180616e-01 5.653076806096227203e-02 -2.515840248755517594e-01 -2.196425618493745291e-01 -1.401836722173180616e-01 -2.196425618493745291e-01 -7.318681670641004056e-01
-4.190982706570914873e-01 -2.848645407317763629e-03 -1.407774031891315114e-01 -2.848645407317763629e-03 -2.833612644414401638e-01 -1.688090846030477765e-01 -1.407774031891315114e-01 -1.688090846030477765e-01 -6.065467180029213701e-01
-4.002631030193496420e-01 -6.611257534012202064e-02 -1.400636627655685307e-01 -6.611257534012202064e-02 -3.156501232489976050e-01 -1.112361291979448580e-01 -1.400636627655685307e-01 -1.112361291979448580e-01 -4.671020513569029697e-01
-3.813268747906608525e-01 -1.276584752268277723e-01 -1.372339662190533160e-01 -1.276584752268277723e-01 -3.479516146304234558e-01 -5.083347724632673870e-02 -1.372339662190533160e-01 -5.083347724632673870e-02 -3.259962012471938619e-01
-3.619106087549738837e-01 -1.815743004970371555e-01 -1.310061073019462008e-01 -1.815743004970371555e-01 -3.765580781553505840e-01 8.299601031520047190e-03 -1.310061073019462008e-01 8.299601031520047190e-03 -1.928678215353612224e-01
-3.442186890523196152e-01 -2.225227886913632158e-01 -1.198831260108451230e-01 -2.225227886913632158e-01 -4.009010479997023868e-01 6.162169532991596671e-02 -1.198831260108451230e-01 6.162169532991596671e-02 -7.936414532804368649e-02
-3.292806704529703810e-01 -2.465752093367424846e-01 -1.032460262261999107e-01 -2.465752093367424846e-01 -4.205699655127567715e-01 1.058799178777553723e-01 -1.032460262261999107e-01 1.058799178777553723e-01 5.375160180992055031e-03
1.391102630949660801e+00 4.430199484118824832e-02 2.602609890723376479e-02 4.430199484118824832e-02 5.942253499709898579e-01 1.417499187206907318e-01 2.602609890723376479e-02 1.417499187206907318e-01 1.894213113643744562e-01
1.221874185298671200e+00 4.223213790143535984e-02 2.728447784219716760e-02 4.223213790143535984e-02 5.101080104165435225e-01 1.278077857543438445e-01 2.728447784219716760e-02 1.278077857543438445e-01 1.454192105684344871e-01
9.046333276291587122e-01 3.804538181875337377e-02 2.959542607322809132e-02 3.804538181875337377e-02 3.487238521451855311e-01 1.016346799621844488e-01 2.959542607322809132e-02 1.016346799621844488e-01 5.903796498613353427e-02
4.822825472378200473e-01 3.129482566296839380e-02 3.297070415112059172e-02 3.129482566296839380e-02 1.305715151909457306e-01 6.582968306969769201e-02 3.297070415112059172e-02 6.582968306969769201e-02 -5.798539569006601335e-02
1.176055079405050312e-03 2.258613779997399248e-02 3.665763682505542020e-02 2.258613779997399248e-02 -1.259378581780898065e-01 2.435610069447859127e-02 3.665763682505542020e-02 2.435610069447859127e-02 -1.988885547535850784e-01
-4.919908819183087534e-01 1.236621915994410431e-02 4.010935848310924479e-02 1.236621915994410431e-02 -3.982710526405203177e-01 -1.885216292286295836e-02 4.010935848310924479e-02 -1.885216292286295836e-02 -3.529282490540586181e-01
-9.555741533935886434e-01 1.522991327829540222e-03 4.259083470065389704e-02 1.522991327829540222e-03 -6.635126349741383711e-01 -5.990824574489326398e-02 4.259083470065389704e-02 -5.990824574489326398e-02 -5.079617098966293653e-01
-1.358331856162038997e+00 -8.955659429669459229e-03 4.332586912528205159e-02 -8.955659429669459229e-03 -9.022047738901873837e-01 -9.556623575245438984e-02 4.332586912528205159e-02 -9.556623575245438984e-02 -6.526164846634505690e-01
-1.678007147845919755e+00 -1.813476932442587702e-02 4.179111724665846017e-02 -1.813476932442587702e-02 -1.098723577658771378e+00 -1.232858539740314396e-01 4.179111724665846017e-02 -1.232858539740314396e-01 -7.773606469359441995e-01
-1.900240395925695269e+00 -2.522638145323833139e-02 3.760436116397648798e-02 -2.522638145323833139e-02 -1.241314375761236599e+00 -1.413441797182959925e-01 3.760436116397648798e-02 -1.413441797182959925e-01 -8.740500152892304309e-01
-5.371730773797861458e-01 -2.708293929718584292e-01 -3.113713533306523007e-01 -2.708293929718584292e-01 -5.131966492106069255e-01 1.835665666549407826e-01 -3.113713533306523007e-01 1.835665666549407826e-01 -6.408940315967596169e-01
-5.275445987157995065e-01 -2.581556868039076025e-01 -2.961515337102167966e-01 -2.581556868039076025e-01 -4.974587618405344469e-01 1.629323072608593326e-01 -2.961515337102167966e-01 1.629323072608593326e-01 -6.293006862237835453e-01
-5.067523918370726577e-01 -2.337054161807921304e-01 -2.667922552643207657e-01 -2.337054161807921304e-01 -4.644224659520923559e-01 1.228957788529309314e-01 -2.667922552643207657e-01 1.228957788529309314e-01 -6.041554466682281799e-01
-4.793769337983234125e-01 -1.990327843514231310e-01 -2.251888878087095203e-01 -1.990327843514231310e-01 -4.199255005777764449e-01 6.720349576694563398e-02 -2.251888878087095203e-01 6.720349576694563398e-02 -5.695396759333315462e-01
-4.449064747493006733e-01 -1.567154942652144722e-01 -1.744561557405912844e-01 -1.567154942652144722e-01 -3.644543439702948029e-01 6.570615361250676427e-04 -1.744561557405912844e-01 6.570615361250676427e-04 -5.243919669222764091e-01
-4.062977916025671266e-01 -1.092175266826350549e-01 -1.175697896706864032e-01 -1.092175266826350549e-01 -3.034487075008365786e-01 -7.096264590150731799e-02 -1.175697896706864032e-01 -7.096264590150731799e-02 -4.717765008371844204e-01
-3.671394512092674423e-01 -5.991895777509751581e-02 -5.863642419977647957e-02 -5.991895777509751581e-02 -2.428663702902281452e-01 -1.411481901785590076e-01 -5.863642419977647957e-02 -1.411481901785590076e-01 -4.156672363917351398e-01
-3.291183327054149066e-01 -1.192187614103848957e-02 -1.528931651367945992e-03 -1.192187614103848957e-02 -1.874583926766046349e-01 -2.032531411411495625e-01 -1.528931651367945992e-03 -2.032531411411495625e-01 -3.589388178064756851e-01
-2.963221169936339217e-01 3.197488879162468933e-02 5.032206860804003951e-02 3.197488879162468933e-02 -1.444461336579559996e-01 -2.511807258819645505e-01 5.032206860804003951e-02 -2.511807258819645505e-01 -3.071383607421542816e-01
-2.706272201915122522e-01 6.923785936917901951e-02 9.370708369045196995e-02 6.923785936917901951e-02 -1.182458049049689153e-01 -2.797818564015625009e-01 9.370708369045196995e-02 -2.797818564015625009e-01 -2.636396234707976127e-01
-1.280189925049353139e+00 -1.080829751185598819e-01 -6.909181218866609908e-02 -1.080829751185598819e-01 -3.348571391203724046e-01 7.934767721621602266e-02 -6.909181218866609908e-02 7.934767721621602266e-02 -7.920296255631807669e-02
-1.217497017604870058e+00 -1.003438867848872595e-01 -6.190641472764645686e-02 -1.003438867848872595e-01 -3.349326424211887532e-01 7.191689402754333771e-02 -6.190641472764645686e-02 7.191689402754333771e-02 -1.117511771498860274e-01
-1.092016823589883501e+00 -8.559557535876637091e-02 -4.822773339642342366e-02 -8.559557535876637091e-02 -3.313776953410870751e-01 5.790473978438157726e-02 -4.822773339642342366e-02 5.790473978438157726e-02 -1.701655642147777703e-01
-9.144456439533718006e-01 -6.524743578876854300e-02 -2.921977741591524902e-02 -6.524743578876854300e-02 -3.286155329195567520e-01 3.869544166836321603e-02 -2.921977741591524902e-02 3.869544166836321603e-02 -2.534519969569117293e-01
-6.939130861523749028e-01 -4.154569127417924446e-02 -6.348569210305445021e-03 -4.154569127417924446e-02 -3.245383546754755932e-01 1.602557559826359515e-02 -6.348569210305445021e-03 1.602557559826359515e-02 -3.508449630682278775e-01
-4.444313044300546300e-01 -1.634017268499825606e-02 1.812708413765112478e-02 -1.634017268499825606e-02 -3.187749360464965931e-01 -7.802007751019575214e-03 1.812708413765112478e-02 -7.802007751019575214e-03 -4.525856609182170032e-01
-1.861093445704903315e-01 8.154356488162393946e-03 4.235105981621997001e-02 8.154356488162393946e-03 -3.128605108158850068e-01 -3.103185663550689366e-02 4.235105981621997001e-02 -3.103185663550689366e-02 -5.503058079997371621e-01
5.848359842397335417e-02 3.032715916122125446e-02 6.402050715050336405e-02 3.032715916122125446e-02 -3.080723431557834679e-01 -5.152471086540266754e-02 6.402050715050336405e-02 -5.152471086540266754e-02 -6.355364507378914452e-01
2.673571881905837389e-01 4.902680999672946044e-02 8.106537730978727319e-02 4.902680999672946044e-02 -3.043663894740491482e-01 -6.778308830784991745e-02 8.106537730978727319e-02 -6.778308830784991745e-02 -6.996072934222722361e-01
4.172878677865881070e-01 6.349827598652382776e-02 9.171134272488817851e-02 6.349827598652382776e-02 -3.043349297653756835e-01 -7.860522809152221957e-02 9.171134272488817851e-02 -7.860522809152221957e-02 -7.383971142166558810e-01
-7.819777685155084868e-01 2.681909940750345500e-01 -8.037691502754570894e-02 2.681909940750345500e-01 -3.087907874692906174e-01 3.276054790407045281e-01 -8.037691502754570894e-02 3.276054790407045281e-01 -4.808861839389260151e-01
-7.524118246175723890e-01 2.519950362770784769e-01 -6.962566270102346633e-02 2.519950362770784769e-01 -3.237935572169901577e-01 3.072270831297438387e-01 -6.962566270102346633e-02 3.072270831297438387e-01 -4.692745802287976997e-01
-6.927335822934245213e-01 2.208088686056359773e-01 -4.888931037498581156e-02 2.208088686056359773e-01 -3.497924968383699373e-01 2.679460765278766643e-01 -4.888931037498581156e-02 2.679460765278766643e-01 -4.443243901042223665e-01
-6.123943468885185704e-01 1.768807085448748373e-01 -1.982576144557870318e-02 1.768807085448748373e-01 -3.892556216163288729e-01 2.124691121280533335e-01 -1.982576144557870318e-02 2.124691121280533335e-01 -4.132638211749122270e-01
-5.078271141262976629e-01 1.237022011260719978e-01 1.483949138292761476e-02 1.237022011260719978e-01 -4.284989485955564281e-01 1.450791070369842339e-01 1.483949138292761476e-02 1.450791070369842339e-01 -3.689839846361806508e-01
-3.942795713016196690e-01 6.502246880187580180e-02 5.196019962011979437e-02 6.502246880187580180e-02 -4.706561663922526617e-01 7.063045263808162555e-02 5.196019962011979437e-02 7.063045263808162555e-02 -3.226757284120130298e-01
-2.783142526908954917e-01 5.319106729301604011e-03 8.813891729131996533e-02 5.319106729301604011e-03 -5.089889024910212445e-01 -5.155828364529653311e-03 8.813891729131996533e-02 -5.155828364529653311e-03 -2.758713571564228584e-01
-1.697718197401884010e-01 -5.101820905412778051e-02 1.196265219438798627e-01 -5.101820905412778051e-02 -5.395533563889088891e-01 -7.647079414723215174e-02 1.196265219438798627e-01 -7.647079414723215174e-02 -2.330798657119586836e-01
-7.947260408419337674e-02 -9.988239968068712837e-02 1.429125287352025764e-01 -9.988239968068712837e-02 -5.599380322369762464e-01 -1.377378605593530814e-01 1.429125287352025764e-01 -1.377378605593530814e-01 -1.997459595500544471e-01
-1.449409484206387426e-02 -1.379074188612316454e-01 1.552023656528451478e-01 -1.379074188612316454e-01 -5.668208433058246065e-01 -1.843915133243844984e-01 1.552023656528451478e-01 -1.843915133243844984e-01 -1.786956103686861141e-01
-9.694945140607023060e-01 2.130335264226289049e-01 -3.725233121564723582e-02 2.130335264226289049e-01 -5.703744382699386106e-01 2.646964913362511163e-01 -3.725233121564723582e-02 2.646964913362511163e-01 -1.495988507865970263e+00
-9.284936021621434943e-01 1.937912446125966415e-01 -3.091606248345932575e-02 1.937912446125966415e-01 -5.541543685675824893e-01 2.477435676249520324e-01 -3.091606248345932575e-02 2.477435676249520324e-01 -1.421140117448180140e+00
-8.473673119155329392e-01 1.556114963767826764e-01 -1.797762223707767212e-02 1.556114963767826764e-01 -5.215196661516463550e-01 2.137858367326941900e-01 -1.797762223707767212e-02 2.137858367326941900e-01 -1.272383724500182334e+00
-7.332625912664908485e-01 1.020872119891196306e-01 7.133977078205424672e-04 1.020872119891196306e-01 -4.750255919028694152e-01 1.647365016031781815e-01 7.133977078205424672e-04 1.647365016031781815e-01 -1.061386624261695610e+00
-5.927491845606738252e-01 3.653893350782669303e-02 2.465113352205347205e-02 3.653893350782669303e-02 -4.159757179964508333e-01 1.023077167351732486e-01 2.465113352205347205e-02 1.023077167351732486e-01 -7.984736271949958164e-01
-4.345824273031520524e-01 -3.589039013708074377e-02 5.214288700797419657e-02 -3.589039013708074377e-02 -3.472236352636729473e-01 3.024157737788353909e-02 5.214288700797419657e-02 3.024157737788353909e-02 -5.005782007102597131e-01
-2.708835950931674508e-01 -1.092860434043996382e-01 8.103549417470616578e-02 -1.092860434043996382e-01 -2.735296520458109226e-01 -4.650704511619190712e-02 8.103549417470616578e-02 -4.650704511619190712e-02 -1.894719457634286286e-01
-1.150451085366236553e-01 -1.768837189372497731e-01 1.082159468426688448e-01 -1.768837189372497731e-01 -2.015478233267181674e-01 -1.211738433901728695e-01 1.082159468426688448e-01 -1.211738433901728695e-01 1.084364515887224489e-01
2.125276625934470476e-02 -2.319839637158254975e-01 1.298967517267058669e-01 -2.319839637158254975e-01 -1.370890977082784290e-01 -1.862357143434063556e-01 1.298967517267058669e-01 -1.862357143434063556e-01 3.672052565163556048e-01
1.247927153989352583e-01 -2.682115964056941415e-01 1.423552698787355075e-01 -2.682115964056941415e-01 -8.816947125291157983e-02 -2.340333607673827088e-01 1.423552698787355075e-01 -2.340333607673827088e-01 5.598939773986840729e-01
-1.574782425736591940e-01 -1.542979161836934843e-01 1.582809839167911847e-01 -1.542979161836934843e-01 -5.674400848501270911e-01 6.495464303205523982e-02 1.582809839167911847e-01 6.495464303205523982e-02 2.544628779763326576e-01
-1.699544362730237568e-01 -1.365824564661772822e-01 1.551374243059002456e-01 -1.365824564661772822e-01 -5.629300266169579015e-01 6.594121827056098617e-02 1.551374243059002456e-01 6.594121827056098617e-02 2.079651580398010069e-01
-1.966103511022162798e-01 -1.022851793859496372e-01 1.491383115202038201e-01 -1.022851793859496372e-01 -5.564100511277025873e-01 6.781019620686068450e-02 1.491383115202038201e-01 6.781019620686068450e-02 1.159133988296563028e-01
-2.324089383279961396e-01 -5.489280115859913878e-02 1.399772557340790424e-01 -5.489280115859913878e-02 -5.441973526783737691e-01 6.978947448038463897e-02 1.399772557340790424e-01 6.978947448038463897e-02 -1.006184187345610451e-02
-2.754383254384765167e-01 1.023342017580492836e-03 1.280770749068855241e-01 1.023342017580492836e-03 -5.279219251412851088e-01 7.128465682942439208e-02 1.280770749068855241e-01 7.128465682942439208e-02 -1.599661279577171691e-01
-3.228184480728020778e-01 6.049973496749824070e-02 1.132907019223242662e-01 6.049973496749824070e-02 -5.074060624175756873e-01 7.142559614921092925e-02 1.132907019223242662e-01 7.142559614921092925e-02 -3.213600325028370119e-01
-3.711177401839963474e-01 1.176414374461694917e-01 9.605321033277980369e-02 1.176414374461694917e-01 -4.843226529551462045e-01 6.962402397454826863e-02 9.605321033277980369e-02 6.962402397454826863e-02 -4.813322882570666983e-01
-4.170639584344068007e-01 1.674359119064035006e-01 7.662809538828779798e-02 1.674359119064035006e-01 -4.594928214866662586e-01 6.545099454956433693e-02 7.662809538828779798e-02 6.545099454956433693e-02 -6.280010977827499286e-01
-4.576728659224661988e-01 2.045581031788743509e-01 5.535851369354594792e-02 2.045581031788743509e-01 -4.351961083147701248e-01 5.856335126956150466e-02 5.535851369354594792e-02 5.856335126956150466e-02 -7.506673283691349674e-01
-4.912531908107362066e-01 2.257296401294168475e-01 3.280209473118789881e-02 2.257296401294168475e-01 -4.130870184978215343e-01 4.889981616941516812e-02 3.280209473118789881e-02 4.889981616941516812e-02 -8.422533750443328415e-01