 vasp.5.4.4.18Apr17-6-g9f103f2a35 (build Jul 09 2021 13:05:15) complex          
  
 executed on             LinuxIFC date 2021.11.04  19:02:10
 running on   16 total cores
 distrk:  each k-point on   16 cores,    1 groups
 distr:  one band on NCORES_PER_BAND=   4 cores,    4 groups


--------------------------------------------------------------------------------------------------------


 INCAR:
 POTCAR:    PAW_PBE H 15Jun2001                   
 POTCAR:    PAW_PBE C 08Apr2002                   
 POTCAR:    PAW_PBE H 15Jun2001                   
   VRHFIN =H: ultrasoft test                                                    
   LEXCH  = PE                                                                  
   EATOM  =    12.4884 eV,    0.9179 Ry                                         
                                                                                
   TITEL  = PAW_PBE H 15Jun2001                                                 
   LULTRA =        F    use ultrasoft PP ?                                      
   IUNSCR =        0    unscreen: 0-lin 1-nonlin 2-no                           
   RPACOR =    0.000    partial core radius                                     
   POMASS =    1.000; ZVAL   =    1.000    mass and valenz                      
   RCORE  =    1.100    outmost cutoff radius                                   
   RWIGS  =    0.700; RWIGS  =    0.370    wigner-seitz radius (au A)           
   ENMAX  =  250.000; ENMIN  =  200.000 eV                                      
   RCLOC  =    0.701    cutoff for local pot                                    
   LCOR   =        T    correct aug charges                                     
   LPAW   =        T    paw PP                                                  
   EAUG   =  400.000                                                            
   RMAX   =    1.123    core radius for proj-oper                               
   RAUG   =    1.200    factor for augmentation sphere                          
   RDEP   =    1.112    radius for radial grids                                 
   RDEPT  =    0.926    core radius for aug-charge                              
                                                                                
   Atomic configuration                                                         
    2 entries                                                                   
     n  l   j            E        occ.                                          
     1  0  0.50        -6.4927   1.0000                                         
     2  1  0.50        -3.4015   0.0000                                         
   Description                                                                  
     l       E           TYP  RCUT    TYP  RCUT                                 
     0     -6.4927494     23  1.100                                             
     0      6.8029130     23  1.100                                             
     1     -4.0817478     23  1.100                                             
  local pseudopotential read in
  atomic valenz-charges read in
  non local Contribution for L=           0  read in
    real space projection operators read in
  non local Contribution for L=           0  read in
    real space projection operators read in
  non local Contribution for L=           1  read in
    real space projection operators read in
    PAW grid and wavefunctions read in
 
   number of l-projection  operators is LMAX  =           3
   number of lm-projection operators is LMMAX =           5
 
 POTCAR:    PAW_PBE C 08Apr2002                   
   VRHFIN =C: s2p2                                                              
   LEXCH  = PE                                                                  
   EATOM  =   147.1560 eV,   10.8157 Ry                                         
                                                                                
   TITEL  = PAW_PBE C 08Apr2002                                                 
   LULTRA =        F    use ultrasoft PP ?                                      
   IUNSCR =        1    unscreen: 0-lin 1-nonlin 2-no                           
   RPACOR =    1.200    partial core radius                                     
   POMASS =   12.011; ZVAL   =    4.000    mass and valenz                      
   RCORE  =    1.500    outmost cutoff radius                                   
   RWIGS  =    1.630; RWIGS  =    0.863    wigner-seitz radius (au A)           
   ENMAX  =  400.000; ENMIN  =  300.000 eV                                      
   ICORE  =        2    local potential                                         
   LCOR   =        T    correct aug charges                                     
   LPAW   =        T    paw PP                                                  
   EAUG   =  644.873                                                            
   DEXC   =    0.000                                                            
   RMAX   =    1.529    core radius for proj-oper                               
   RAUG   =    1.300    factor for augmentation sphere                          
   RDEP   =    1.501    radius for radial grids                                 
   RDEPT  =    1.300    core radius for aug-charge                              
                                                                                
   Atomic configuration                                                         
    4 entries                                                                   
     n  l   j            E        occ.                                          
     1  0  0.50      -273.3789   2.0000                                         
     2  0  0.50       -13.7508   2.0000                                         
     2  1  0.50        -5.2854   2.0000                                         
     3  2  1.50        -5.4423   0.0000                                         
   Description                                                                  
     l       E           TYP  RCUT    TYP  RCUT                                 
     0    -13.7508458     23  1.200                                             
     0     -8.2022199     23  1.200                                             
     1     -5.2854383     23  1.500                                             
     1     34.0145650     23  1.500                                             
     2     -5.4423304      7  1.500                                             
  local pseudopotential read in
  partial core-charges read in
  partial kinetic energy density read in
  atomic valenz-charges read in
  non local Contribution for L=           0  read in
    real space projection operators read in
  non local Contribution for L=           0  read in
    real space projection operators read in
  non local Contribution for L=           1  read in
    real space projection operators read in
  non local Contribution for L=           1  read in
    real space projection operators read in
    PAW grid and wavefunctions read in
 
   number of l-projection  operators is LMAX  =           4
   number of lm-projection operators is LMMAX =           8
 
  PAW_PBE H 15Jun2001                   :
 energy of atom  1       EATOM=  -12.4884
 kinetic energy error for atom=    0.0098 (will be added to EATOM!!)
  PAW_PBE C 08Apr2002                   :
 energy of atom  2       EATOM= -147.1560
 kinetic energy error for atom=    0.0288 (will be added to EATOM!!)
 
 
 POSCAR:  H  C                                   
  positions in cartesian coordinates
  No initial velocities read in
 exchange correlation table for  LEXCH =        8
   RHO(1)=    0.500       N(1)  =     2000
   RHO(2)=  100.500       N(2)  =     4000
 


--------------------------------------------------------------------------------------------------------


 ion  position               nearest neighbor table
   1  0.539  0.407  0.361-   5 1.10
   2  0.395  0.481  0.439-   5 1.08
   3  0.552  0.565  0.443-   5 1.10
   4  0.528  0.416  0.539-   5 1.09
   5  0.503  0.467  0.445-   2 1.08   4 1.09   3 1.10   1 1.10
 

IMPORTANT INFORMATION: All symmetrisations will be switched off!
NOSYMM: (Re-)initialisation of all symmetry stuff for point group C_1.

 
 

Automatic generation of k-mesh.
 generate k-points for:    2    2    2
Space group operators:
 irot       det(A)        alpha          n_x          n_y          n_z        tau_x        tau_y        tau_z
    1     1.000000     0.000000     1.000000     0.000000     0.000000     0.000000     0.000000     0.000000
 
 Subroutine IBZKPT returns following result:
 ===========================================
 
 Found      4 irreducible k-points:
 
 Following reciprocal coordinates:
            Coordinates               Weight
  0.250000  0.250000  0.250000      2.000000
 -0.250000  0.250000  0.250000      2.000000
  0.250000 -0.250000  0.250000      2.000000
 -0.250000 -0.250000  0.250000      2.000000
 
 Following cartesian coordinates:
            Coordinates               Weight
  0.025422  0.024984  0.024541      2.000000
 -0.025422  0.024506  0.024772      2.000000
  0.025422 -0.024506  0.025532      2.000000
 -0.025422 -0.024984  0.025763      2.000000
 


--------------------------------------------------------------------------------------------------------




 Dimension of arrays:
   k-points           NKPTS =      4   k-points in BZ     NKDIM =      4   number of bands    NBANDS=      8
   number of dos      NEDOS =    301   number of ions     NIONS =      5
   non local maximal  LDIM  =      4   non local SUM 2l+1 LMDIM =      8
   total plane-waves  NPLWV = 313600
   max r-space proj   IRMAX =      1   max aug-charges    IRDMAX=   3946
   dimension x,y,z NGX =    64 NGY =   70 NGZ =   70
   dimension x,y,z NGXF=   128 NGYF=  140 NGZF=  140
   support grid    NGXF=   128 NGYF=  140 NGZF=  140
   ions per type =               4   1
   NGX,Y,Z   is equivalent  to a cutoff of  10.82, 11.52, 11.71 a.u.
   NGXF,Y,Z  is equivalent  to a cutoff of  21.64, 23.04, 23.41 a.u.

 SYSTEM =  unknown system                          
 POSCAR =   H  C                                   

 Startparameter for this run:
   NWRITE =      2    write-flag & timer
   PREC   = a         normal or accurate (medium, high low for compatibility)
   ISTART =      0    job   : 0-new  1-cont  2-samecut
   ICHARG =      2    charge: 1-file 2-atom 10-const
   ISPIN  =      1    spin polarized calculation?
   LNONCOLLINEAR =      F non collinear calculations
   LSORBIT =      F    spin-orbit coupling
   INIWAV =      1    electr: 0-lowe 1-rand  2-diag
   LASPH  =      F    aspherical Exc in radial PAW
   METAGGA=      F    non-selfconsistent MetaGGA calc.

 Electronic Relaxation 1
   ENCUT  =  400.0 eV  29.40 Ry    5.42 a.u.  16.04 16.48 16.21*2*pi/ulx,y,z
   ENINI  =  400.0     initial cutoff
   ENAUG  =  644.9 eV  augmentation charge cutoff
   NELM   =    120;   NELMIN=  4; NELMDL= -5     # of ELM steps 
   EDIFF  = 0.1E-05   stopping-criterion for ELM
   LREAL  =      F    real-space projection
   NLSPLINE    = F    spline interpolate recip. space projectors
   LCOMPAT=      F    compatible to vasp.4.4
   GGA_COMPAT  = T    GGA compatible to vasp.4.4-vasp.4.6
   LMAXPAW     = -100 max onsite density
   LMAXMIX     =    2 max onsite mixed and CHGCAR
   VOSKOWN=      0    Vosko Wilk Nusair interpolation
   ROPT   =    0.00000   0.00000
 Ionic relaxation
   EDIFFG = 0.1E-04   stopping-criterion for IOM
   NSW    =     10    number of steps for IOM
   NBLOCK =      1;   KBLOCK =     10    inner block; outer block 
   IBRION =      0    ionic relax: 0-MD 1-quasi-New 2-CG
   NFREE  =      0    steps in history (QN), initial steepest desc. (CG)
   ISIF   =      2    stress and relaxation
   IWAVPR =     12    prediction:  0-non 1-charg 2-wave 3-comb
   ISYM   =      0    0-nonsym 1-usesym 2-fastsym
   LCORR  =      T    Harris-Foulkes like correction to forces

   POTIM  = 0.5000    time-step for ionic-motion
   TEIN   =    0.0    initial temperature
   TEBEG  =    0.0;   TEEND  =   0.0 temperature during run
   SMASS  =  -3.00    Nose mass-parameter (am)
   estimated Nose-frequenzy (Omega)   =  0.10E-29 period in steps =****** mass=  -0.221E-26a.u.
   SCALEE = 1.0000    scale energy and forces
   NPACO  =    256;   APACO  = 16.0  distance and # of slots for P.C.
   PSTRESS=    0.0 pullay stress

  Mass of Ions in am
   POMASS =   1.00 12.01
  Ionic Valenz
   ZVAL   =   1.00  4.00
  Atomic Wigner-Seitz radii
   RWIGS  =  -1.00 -1.00
  virtual crystal weights 
   VCA    =   1.00  1.00
   NELECT =       8.0000    total number of electrons
   NUPDOWN=      -1.0000    fix difference up-down

 DOS related values:
   EMIN   =  10.00;   EMAX   =-10.00  energy-range for DOS
   EFERMI =   0.00
   ISMEAR =     0;   SIGMA  =   0.20  broadening in eV -4-tet -1-fermi 0-gaus

 Electronic relaxation 2 (details)
   IALGO  =     68    algorithm
   LDIAG  =      T    sub-space diagonalisation (order eigenvalues)
   LSUBROT=      F    optimize rotation matrix (better conditioning)
   TURBO    =      0    0=normal 1=particle mesh
   IRESTART =      0    0=no restart 2=restart with 2 vectors
   NREBOOT  =      0    no. of reboots
   NMIN     =      0    reboot dimension
   EREF     =   0.00    reference energy to select bands
   IMIX   =      4    mixing-type and parameters
     AMIX     =   0.40;   BMIX     =  1.00
     AMIX_MAG =   1.60;   BMIX_MAG =  1.00
     AMIN     =   0.10
     WC   =   100.;   INIMIX=   1;  MIXPRE=   1;  MAXMIX= -45

 Intra band minimization:
   WEIMIN = 0.0010     energy-eigenvalue tresh-hold
   EBREAK =  0.31E-07  absolut break condition
   DEPER  =   0.30     relativ break condition  

   TIME   =   0.40     timestep for ELM

  volume/ion in A,a.u.               =     197.51      1332.86
  Fermi-wavevector in a.u.,A,eV,Ry     =   0.328790  0.621323  1.470828  0.108103
  Thomas-Fermi vector in A             =   1.222681
 
 Write flags
   LWAVE        =      F    write WAVECAR
   LDOWNSAMPLE  =      F    k-point downsampling of WAVECAR
   LCHARG       =      F    write CHGCAR
   LVTOT        =      F    write LOCPOT, total local potential
   LVHAR        =      F    write LOCPOT, Hartree potential only
   LELF         =      F    write electronic localiz. function (ELF)
   LORBIT       =      0    0 simple, 1 ext, 2 COOP (PROOUT), +10 PAW based schemes


 Dipole corrections
   LMONO  =      F    monopole corrections only (constant potential shift)
   LDIPOL =      F    correct potential (dipole corrections)
   IDIPOL =      0    1-x, 2-y, 3-z, 4-all directions 
   EPSILON=  1.0000000 bulk dielectric constant

 Exchange correlation treatment:
   GGA     =    --    GGA type
   LEXCH   =     8    internal setting for exchange type
   VOSKOWN=      0    Vosko Wilk Nusair interpolation
   LHFCALC =     F    Hartree Fock is set to
   LHFONE  =     F    Hartree Fock one center treatment
   AEXX    =    0.0000 exact exchange contribution

 Linear response parameters
   LEPSILON=     F    determine dielectric tensor
   LRPA    =     F    only Hartree local field effects (RPA)
   LNABLA  =     F    use nabla operator in PAW spheres
   LVEL    =     F    velocity operator in full k-point grid
   LINTERFAST=   F  fast interpolation
   KINTER  =     0    interpolate to denser k-point grid
   CSHIFT  =0.1000    complex shift for real part using Kramers Kronig
   OMEGAMAX=  -1.0    maximum frequency
   DEG_THRESHOLD= 0.2000000E-02 threshold for treating states as degnerate
   RTIME   =   -0.100 relaxation time in fs
  (WPLASMAI=    0.000 imaginary part of plasma frequency in eV, 0.658/RTIME)
   DFIELD  = 0.0000000 0.0000000 0.0000000 field for delta impulse in time
 
 Orbital magnetization related:
   ORBITALMAG=     F  switch on orbital magnetization
   LCHIMAG   =     F  perturbation theory with respect to B field
   DQ        =  0.001000  dq finite difference perturbation B field
   LLRAUG    =     F  two centre corrections for induced B field



--------------------------------------------------------------------------------------------------------


 molecular dynamics for ions
   using a microcanonical ensemble
 charge density and potential will be updated during run
 non-spin polarized calculation
 RMM-DIIS sequential band-by-band and
  variant of blocked Davidson during initial phase
 perform sub-space diagonalisation
    before iterative eigenvector-optimisation
 modified Broyden-mixing scheme, WC =      100.0
 initial mixing is a Kerker type mixing with AMIX =  0.4000 and BMIX =      1.0000
 Hartree-type preconditioning will be used
 using additional bands            4
 reciprocal scheme for non local part
 use partial core corrections
 calculate Harris-corrections to forces 
   (improved forces if not selfconsistent)
 use gradient corrections 
 use of overlap-Matrix (Vanderbilt PP)
 Gauss-broadening in eV      SIGMA  =   0.20


--------------------------------------------------------------------------------------------------------


  energy-cutoff  :      400.00
  volume of cell :      987.55
      direct lattice vectors                 reciprocal lattice vectors
     9.834098061  0.000000000  0.000000000     0.101687007  0.000956085 -0.000462666
    -0.094992807 10.103218486  0.000000000     0.000000000  0.098978360 -0.001981394
     0.043353050  0.198973597  9.939508721     0.000000000  0.000000000  0.100608594

  length of vectors
     9.834098061 10.103665048  9.941594620     0.101692554  0.098998191  0.100608594


 
 k-points in units of 2pi/SCALE and weight: read from INCAR                         
   0.02542175  0.02498361  0.02454113       0.250
  -0.02542175  0.02450557  0.02477247       0.250
   0.02542175 -0.02450557  0.02553183       0.250
  -0.02542175 -0.02498361  0.02576316       0.250
 
 k-points in reciprocal lattice and weights: read from INCAR                         
   0.25000000  0.25000000  0.25000000       0.250
  -0.25000000  0.25000000  0.25000000       0.250
   0.25000000 -0.25000000  0.25000000       0.250
  -0.25000000 -0.25000000  0.25000000       0.250
 
 position of ions in fractional coordinates (direct lattice) 
   0.53874170  0.40706314  0.36134544
   0.39488392  0.48082832  0.43917033
   0.55179114  0.56546364  0.44278088
   0.52818499  0.41641511  0.53918302
   0.50321658  0.46728840  0.44516393
 
 position of ions in cartesian coordinates  (Angst):
   5.27503607  4.18454601  3.59159617
   3.85669136  4.94529691  4.36513737
   5.39184908  5.80110443  4.40102442
   5.17804174  4.31441600  5.35921428
   4.92359137  4.80969272  4.42471077
 


--------------------------------------------------------------------------------------------------------


 k-point  1 :   0.2500 0.2500 0.2500  plane waves:   17937
 k-point  2 :  -0.2500 0.2500 0.2500  plane waves:   17951
 k-point  3 :   0.2500-0.2500 0.2500  plane waves:   17947
 k-point  4 :  -0.2500-0.2500 0.2500  plane waves:   17951

 maximum and minimum number of plane-waves per node :      4507     4458

 maximum number of plane-waves:     17951
 maximum index in each direction: 
   IXMAX=   16   IYMAX=   16   IZMAX=   15
   IXMIN=  -16   IYMIN=  -16   IZMIN=  -16


 parallel 3D FFT for wavefunctions:
    minimum data exchange during FFTs selected (reduces bandwidth)
 parallel 3D FFT for charge:
    minimum data exchange during FFTs selected (reduces bandwidth)


 total amount of memory used by VASP MPI-rank0    52912. kBytes
=======================================================================

   base      :      30000. kBytes
   nonl-proj :       2656. kBytes
   fftplans  :       7642. kBytes
   grid      :      12032. kBytes
   one-center:          6. kBytes
   wavefun   :        576. kBytes
 
     INWAV:  cpu time    0.0000: real time    0.0001
 Broyden mixing: mesh for mixing (old mesh)
   NGX = 33   NGY = 33   NGZ = 33
  (NGX  =128   NGY  =140   NGZ  =140)
  gives a total of  35937 points

 initial charge density was supplied:
 charge density of overlapping atoms calculated
 number of electron       8.0000000 magnetization 
 keeping initial charge density in first step


--------------------------------------------------------------------------------------------------------


 Maximum index for augmentation-charges          299 (set IRDMAX)


--------------------------------------------------------------------------------------------------------


 First call to EWALD:  gamma=   0.178
 Maximum number of real-space cells 3x 3x 3
 Maximum number of reciprocal cells 3x 3x 3

    FEWALD:  cpu time    0.0018: real time    0.0018


--------------------------------------- Iteration      1(   1)  ---------------------------------------


    POTLOK:  cpu time    0.1482: real time    0.1597
    SETDIJ:  cpu time    0.0042: real time    0.0045
     EDDAV:  cpu time    0.1995: real time    0.2194
       DOS:  cpu time    0.0004: real time    0.0016
    --------------------------------------------
      LOOP:  cpu time    0.3523: real time    0.3852

 eigenvalue-minimisations  :    96
 total energy-change (2. order) : 0.1333641E+02  (-0.2017945E+03)
 number of electron       8.0000000 magnetization 
 augmentation part        8.0000000 magnetization 

 Free energy of the ion-electron system (eV)
  ---------------------------------------------------
  alpha Z        PSCENC =         0.24530478
  Ewald energy   TEWEN  =       129.77413103
  -Hartree energ DENC   =      -244.28975365
  -exchange      EXHF   =         0.00000000
  -V(xc)+E(xc)   XCENC  =        22.04721086
  PAW double counting   =       117.05815612     -117.66307307
  entropy T*S    EENTRO =        -0.00000000
  eigenvalues    EBANDS =       -90.87732414
  atomic energy  EATOM  =       197.04175453
  Solvation  Ediel_sol  =         0.00000000
  ---------------------------------------------------
  free energy    TOTEN  =        13.33640647 eV

  energy without entropy =       13.33640647  energy(sigma->0) =       13.33640647


--------------------------------------------------------------------------------------------------------




--------------------------------------- Iteration      1(   2)  ---------------------------------------


     EDDAV:  cpu time    0.1580: real time    0.1599
       DOS:  cpu time    0.0002: real time    0.0002
    --------------------------------------------
      LOOP:  cpu time    0.1582: real time    0.1601

 eigenvalue-minimisations  :    72
 total energy-change (2. order) :-0.3692431E+02  (-0.3692431E+02)
 number of electron       8.0000000 magnetization 
 augmentation part        8.0000000 magnetization 

 Free energy of the ion-electron system (eV)
  ---------------------------------------------------
  alpha Z        PSCENC =         0.24530478
  Ewald energy   TEWEN  =       129.77413103
  -Hartree energ DENC   =      -244.28975365
  -exchange      EXHF   =         0.00000000
  -V(xc)+E(xc)   XCENC  =        22.04721086
  PAW double counting   =       117.05815612     -117.66307307
  entropy T*S    EENTRO =        -0.00000000
  eigenvalues    EBANDS =      -127.80163646
  atomic energy  EATOM  =       197.04175453
  Solvation  Ediel_sol  =         0.00000000
  ---------------------------------------------------
  free energy    TOTEN  =       -23.58790585 eV

  energy without entropy =      -23.58790585  energy(sigma->0) =      -23.58790585


--------------------------------------------------------------------------------------------------------




--------------------------------------- Iteration      1(   3)  ---------------------------------------


     EDDAV:  cpu time    0.1453: real time    0.1469
       DOS:  cpu time    0.0005: real time    0.0005
    --------------------------------------------
      LOOP:  cpu time    0.1457: real time    0.1474

 eigenvalue-minimisations  :    64
 total energy-change (2. order) :-0.3909172E+01  (-0.3909172E+01)
 number of electron       8.0000000 magnetization 
 augmentation part        8.0000000 magnetization 

 Free energy of the ion-electron system (eV)
  ---------------------------------------------------
  alpha Z        PSCENC =         0.24530478
  Ewald energy   TEWEN  =       129.77413103
  -Hartree energ DENC   =      -244.28975365
  -exchange      EXHF   =         0.00000000
  -V(xc)+E(xc)   XCENC  =        22.04721086
  PAW double counting   =       117.05815612     -117.66307307
  entropy T*S    EENTRO =        -0.00000000
  eigenvalues    EBANDS =      -131.71080831
  atomic energy  EATOM  =       197.04175453
  Solvation  Ediel_sol  =         0.00000000
  ---------------------------------------------------
  free energy    TOTEN  =       -27.49707770 eV

  energy without entropy =      -27.49707770  energy(sigma->0) =      -27.49707770


--------------------------------------------------------------------------------------------------------




--------------------------------------- Iteration      1(   4)  ---------------------------------------


     EDDAV:  cpu time    0.2427: real time    0.2486
       DOS:  cpu time    0.0002: real time    0.0002
    --------------------------------------------
      LOOP:  cpu time    0.2429: real time    0.2488

 eigenvalue-minimisations  :   128
 total energy-change (2. order) :-0.1464337E+00  (-0.1464337E+00)
 number of electron       8.0000000 magnetization 
 augmentation part        8.0000000 magnetization 

 Free energy of the ion-electron system (eV)
  ---------------------------------------------------
  alpha Z        PSCENC =         0.24530478
  Ewald energy   TEWEN  =       129.77413103
  -Hartree energ DENC   =      -244.28975365
  -exchange      EXHF   =         0.00000000
  -V(xc)+E(xc)   XCENC  =        22.04721086
  PAW double counting   =       117.05815612     -117.66307307
  entropy T*S    EENTRO =        -0.00000000
  eigenvalues    EBANDS =      -131.85724196
  atomic energy  EATOM  =       197.04175453
  Solvation  Ediel_sol  =         0.00000000
  ---------------------------------------------------
  free energy    TOTEN  =       -27.64351135 eV

  energy without entropy =      -27.64351135  energy(sigma->0) =      -27.64351135


--------------------------------------------------------------------------------------------------------




--------------------------------------- Iteration      1(   5)  ---------------------------------------


     EDDAV:  cpu time    0.1796: real time    0.1834
       DOS:  cpu time    0.0002: real time    0.0002
    CHARGE:  cpu time    0.0209: real time    0.0211
    MIXING:  cpu time    0.0042: real time    0.0044
    --------------------------------------------
      LOOP:  cpu time    0.2049: real time    0.2090

 eigenvalue-minimisations  :    88
 total energy-change (2. order) :-0.4281803E-04  (-0.4281823E-04)
 number of electron       8.0000002 magnetization 
 augmentation part        0.2277921 magnetization 

 Broyden mixing:
  rms(total) = 0.88425E+00    rms(broyden)= 0.88406E+00
  rms(prec ) = 0.12529E+01
  weight for this iteration     100.00

 Free energy of the ion-electron system (eV)
  ---------------------------------------------------
  alpha Z        PSCENC =         0.24530478
  Ewald energy   TEWEN  =       129.77413103
  -Hartree energ DENC   =      -244.28975365
  -exchange      EXHF   =         0.00000000
  -V(xc)+E(xc)   XCENC  =        22.04721086
  PAW double counting   =       117.05815612     -117.66307307
  entropy T*S    EENTRO =        -0.00000000
  eigenvalues    EBANDS =      -131.85728478
  atomic energy  EATOM  =       197.04175453
  Solvation  Ediel_sol  =         0.00000000
  ---------------------------------------------------
  free energy    TOTEN  =       -27.64355417 eV

  energy without entropy =      -27.64355417  energy(sigma->0) =      -27.64355417


--------------------------------------------------------------------------------------------------------




--------------------------------------- Iteration      1(   6)  ---------------------------------------


    POTLOK:  cpu time    0.1361: real time    0.1373
    SETDIJ:  cpu time    0.0021: real time    0.0021
    EDDIAG:  cpu time    0.0425: real time    0.0502
  RMM-DIIS:  cpu time    0.2072: real time    0.2087
    ORTHCH:  cpu time    0.0015: real time    0.0015
       DOS:  cpu time    0.0002: real time    0.0002
    CHARGE:  cpu time    0.0195: real time    0.0195
    MIXING:  cpu time    0.0044: real time    0.0148
    --------------------------------------------
      LOOP:  cpu time    0.4135: real time    0.4344

 eigenvalue-minimisations  :    64
 total energy-change (2. order) : 0.2972694E+01  (-0.5522061E+00)
 number of electron       8.0000001 magnetization 
 augmentation part        0.2007489 magnetization 

 Broyden mixing:
  rms(total) = 0.43482E+00    rms(broyden)= 0.43474E+00
  rms(prec ) = 0.56497E+00
  weight for this iteration     100.00

 eigenvalues of (default mixing * dielectric matrix)
  average eigenvalue GAMMA=   1.3100
  1.3100

 Free energy of the ion-electron system (eV)
  ---------------------------------------------------
  alpha Z        PSCENC =         0.24530478
  Ewald energy   TEWEN  =       129.77413103
  -Hartree energ DENC   =      -264.28873828
  -exchange      EXHF   =         0.00000000
  -V(xc)+E(xc)   XCENC  =        23.26072084
  PAW double counting   =       240.69408470     -241.47763916
  entropy T*S    EENTRO =        -0.00000000
  eigenvalues    EBANDS =      -109.92047835
  atomic energy  EATOM  =       197.04175453
  Solvation  Ediel_sol  =         0.00000000
  ---------------------------------------------------
  free energy    TOTEN  =       -24.67085990 eV

  energy without entropy =      -24.67085990  energy(sigma->0) =      -24.67085990


--------------------------------------------------------------------------------------------------------




--------------------------------------- Iteration      1(   7)  ---------------------------------------


    POTLOK:  cpu time    0.1352: real time    0.1378
    SETDIJ:  cpu time    0.0020: real time    0.0020
    EDDIAG:  cpu time    0.0373: real time    0.0379
  RMM-DIIS:  cpu time    0.1446: real time    0.1467
    ORTHCH:  cpu time    0.0016: real time    0.0016
       DOS:  cpu time    0.0002: real time    0.0002
    CHARGE:  cpu time    0.0177: real time    0.0180
    MIXING:  cpu time    0.0044: real time    0.0045
    --------------------------------------------
      LOOP:  cpu time    0.3430: real time    0.3486

 eigenvalue-minimisations  :    64
 total energy-change (2. order) : 0.5076919E+00  (-0.1279495E+00)
 number of electron       8.0000001 magnetization 
 augmentation part        0.1899713 magnetization 

 Broyden mixing:
  rms(total) = 0.23035E+00    rms(broyden)= 0.23030E+00
  rms(prec ) = 0.27817E+00
  weight for this iteration     100.00

 eigenvalues of (default mixing * dielectric matrix)
  average eigenvalue GAMMA=   1.8441
  1.4648  2.2234

 Free energy of the ion-electron system (eV)
  ---------------------------------------------------
  alpha Z        PSCENC =         0.24530478
  Ewald energy   TEWEN  =       129.77413103
  -Hartree energ DENC   =      -276.22574174
  -exchange      EXHF   =         0.00000000
  -V(xc)+E(xc)   XCENC  =        24.13553289
  PAW double counting   =       371.45904736     -372.28403932
  entropy T*S    EENTRO =        -0.00000000
  eigenvalues    EBANDS =       -98.30915759
  atomic energy  EATOM  =       197.04175453
  Solvation  Ediel_sol  =         0.00000000
  ---------------------------------------------------
  free energy    TOTEN  =       -24.16316805 eV

  energy without entropy =      -24.16316805  energy(sigma->0) =      -24.16316805


--------------------------------------------------------------------------------------------------------




--------------------------------------- Iteration      1(   8)  ---------------------------------------


    POTLOK:  cpu time    0.1358: real time    0.1375
    SETDIJ:  cpu time    0.0022: real time    0.0022
    EDDIAG:  cpu time    0.0370: real time    0.0376
  RMM-DIIS:  cpu time    0.1455: real time    0.1484
    ORTHCH:  cpu time    0.0014: real time    0.0014
       DOS:  cpu time    0.0002: real time    0.0002
    CHARGE:  cpu time    0.0180: real time    0.0182
    MIXING:  cpu time    0.0045: real time    0.0046
    --------------------------------------------
      LOOP:  cpu time    0.3446: real time    0.3500

 eigenvalue-minimisations  :    64
 total energy-change (2. order) : 0.1475926E+00  (-0.1623254E-01)
 number of electron       8.0000001 magnetization 
 augmentation part        0.1885740 magnetization 

 Broyden mixing:
  rms(total) = 0.22438E-01    rms(broyden)= 0.22417E-01
  rms(prec ) = 0.52853E-01
  weight for this iteration     100.00

 eigenvalues of (default mixing * dielectric matrix)
  average eigenvalue GAMMA=   1.5534
  2.2481  0.9964  1.4158

 Free energy of the ion-electron system (eV)
  ---------------------------------------------------
  alpha Z        PSCENC =         0.24530478
  Ewald energy   TEWEN  =       129.77413103
  -Hartree energ DENC   =      -281.64355429
  -exchange      EXHF   =         0.00000000
  -V(xc)+E(xc)   XCENC  =        24.67266853
  PAW double counting   =       483.57706546     -484.36979593
  entropy T*S    EENTRO =        -0.00000000
  eigenvalues    EBANDS =       -93.31314955
  atomic energy  EATOM  =       197.04175453
  Solvation  Ediel_sol  =         0.00000000
  ---------------------------------------------------
  free energy    TOTEN  =       -24.01557544 eV

  energy without entropy =      -24.01557544  energy(sigma->0) =      -24.01557544


--------------------------------------------------------------------------------------------------------




--------------------------------------- Iteration      1(   9)  ---------------------------------------


    POTLOK:  cpu time    0.1357: real time    0.1374
    SETDIJ:  cpu time    0.0020: real time    0.0021
    EDDIAG:  cpu time    0.0371: real time    0.0380
  RMM-DIIS:  cpu time    0.1450: real time    0.1483
    ORTHCH:  cpu time    0.0016: real time    0.0016
       DOS:  cpu time    0.0002: real time    0.0002
    CHARGE:  cpu time    0.0179: real time    0.0182
    MIXING:  cpu time    0.0045: real time    0.0045
    --------------------------------------------
      LOOP:  cpu time    0.3439: real time    0.3502

 eigenvalue-minimisations  :    64
 total energy-change (2. order) : 0.5717811E-02  (-0.1118295E-02)
 number of electron       8.0000001 magnetization 
 augmentation part        0.1879961 magnetization 

 Broyden mixing:
  rms(total) = 0.19705E-01    rms(broyden)= 0.19701E-01
  rms(prec ) = 0.40655E-01
  weight for this iteration     100.00

 eigenvalues of (default mixing * dielectric matrix)
  average eigenvalue GAMMA=   2.1030
  3.1128  2.9138  1.0026  1.3829

 Free energy of the ion-electron system (eV)
  ---------------------------------------------------
  alpha Z        PSCENC =         0.24530478
  Ewald energy   TEWEN  =       129.77413103
  -Hartree energ DENC   =      -282.91505073
  -exchange      EXHF   =         0.00000000
  -V(xc)+E(xc)   XCENC  =        24.74342192
  PAW double counting   =       487.34439452     -488.13971392
  entropy T*S    EENTRO =        -0.00000000
  eigenvalues    EBANDS =       -92.10409975
  atomic energy  EATOM  =       197.04175453
  Solvation  Ediel_sol  =         0.00000000
  ---------------------------------------------------
  free energy    TOTEN  =       -24.00985763 eV

  energy without entropy =      -24.00985763  energy(sigma->0) =      -24.00985763


--------------------------------------------------------------------------------------------------------




--------------------------------------- Iteration      1(  10)  ---------------------------------------


    POTLOK:  cpu time    0.1312: real time    0.1330
    SETDIJ:  cpu time    0.0020: real time    0.0021
    EDDIAG:  cpu time    0.0369: real time    0.0374
  RMM-DIIS:  cpu time    0.1457: real time    0.1486
    ORTHCH:  cpu time    0.0015: real time    0.0015
       DOS:  cpu time    0.0002: real time    0.0002
    CHARGE:  cpu time    0.0177: real time    0.0179
    MIXING:  cpu time    0.0051: real time    0.0060
    --------------------------------------------
      LOOP:  cpu time    0.3403: real time    0.3469

 eigenvalue-minimisations  :    64
 total energy-change (2. order) : 0.6092001E-02  (-0.2393244E-02)
 number of electron       8.0000001 magnetization 
 augmentation part        0.1869576 magnetization 

 Broyden mixing:
  rms(total) = 0.27925E-01    rms(broyden)= 0.27923E-01
  rms(prec ) = 0.35441E-01
  weight for this iteration     100.00

 eigenvalues of (default mixing * dielectric matrix)
  average eigenvalue GAMMA=   1.7812
  3.0689  2.4435  1.2093  1.2093  0.9749

 Free energy of the ion-electron system (eV)
  ---------------------------------------------------
  alpha Z        PSCENC =         0.24530478
  Ewald energy   TEWEN  =       129.77413103
  -Hartree energ DENC   =      -285.11485373
  -exchange      EXHF   =         0.00000000
  -V(xc)+E(xc)   XCENC  =        24.81288173
  PAW double counting   =       470.95115040     -471.75001843
  entropy T*S    EENTRO =        -0.00000000
  eigenvalues    EBANDS =       -89.96411593
  atomic energy  EATOM  =       197.04175453
  Solvation  Ediel_sol  =         0.00000000
  ---------------------------------------------------
  free energy    TOTEN  =       -24.00376563 eV

  energy without entropy =      -24.00376563  energy(sigma->0) =      -24.00376563


--------------------------------------------------------------------------------------------------------




--------------------------------------- Iteration      1(  11)  ---------------------------------------


    POTLOK:  cpu time    0.1298: real time    0.1314
    SETDIJ:  cpu time    0.0020: real time    0.0023
    EDDIAG:  cpu time    0.0365: real time    0.0370
  RMM-DIIS:  cpu time    0.1444: real time    0.1466
    ORTHCH:  cpu time    0.0015: real time    0.0015
       DOS:  cpu time    0.0002: real time    0.0002
    CHARGE:  cpu time    0.0175: real time    0.0178
    MIXING:  cpu time    0.0048: real time    0.0048
    --------------------------------------------
      LOOP:  cpu time    0.3367: real time    0.3417

 eigenvalue-minimisations  :    64
 total energy-change (2. order) :-0.5917642E-03  (-0.7021577E-03)
 number of electron       8.0000001 magnetization 
 augmentation part        0.1872866 magnetization 

 Broyden mixing:
  rms(total) = 0.71147E-02    rms(broyden)= 0.71119E-02
  rms(prec ) = 0.13278E-01
  weight for this iteration     100.00

 eigenvalues of (default mixing * dielectric matrix)
  average eigenvalue GAMMA=   2.2797
  4.8238  3.1109  2.4333  1.3035  1.0035  1.0035

 Free energy of the ion-electron system (eV)
  ---------------------------------------------------
  alpha Z        PSCENC =         0.24530478
  Ewald energy   TEWEN  =       129.77413103
  -Hartree energ DENC   =      -285.01929330
  -exchange      EXHF   =         0.00000000
  -V(xc)+E(xc)   XCENC  =        24.82714619
  PAW double counting   =       480.21861793     -481.01030495
  entropy T*S    EENTRO =        -0.00000000
  eigenvalues    EBANDS =       -90.08171360
  atomic energy  EATOM  =       197.04175453
  Solvation  Ediel_sol  =         0.00000000
  ---------------------------------------------------
  free energy    TOTEN  =       -24.00435739 eV

  energy without entropy =      -24.00435739  energy(sigma->0) =      -24.00435739


--------------------------------------------------------------------------------------------------------




--------------------------------------- Iteration      1(  12)  ---------------------------------------


    POTLOK:  cpu time    0.1234: real time    0.1253
    SETDIJ:  cpu time    0.0020: real time    0.0022
    EDDIAG:  cpu time    0.0366: real time    0.0371
  RMM-DIIS:  cpu time    0.1463: real time    0.1486
    ORTHCH:  cpu time    0.0017: real time    0.0017
       DOS:  cpu time    0.0002: real time    0.0002
    CHARGE:  cpu time    0.0176: real time    0.0180
    MIXING:  cpu time    0.0050: real time    0.0050
    --------------------------------------------
      LOOP:  cpu time    0.3329: real time    0.3381

 eigenvalue-minimisations  :    64
 total energy-change (2. order) :-0.9873192E-02  (-0.4098833E-03)
 number of electron       8.0000001 magnetization 
 augmentation part        0.1875379 magnetization 

 Broyden mixing:
  rms(total) = 0.12855E-01    rms(broyden)= 0.12854E-01
  rms(prec ) = 0.16738E-01
  weight for this iteration     100.00

 eigenvalues of (default mixing * dielectric matrix)
  average eigenvalue GAMMA=   2.0190
  4.8132  2.9356  2.4362  1.2568  0.9945  0.9945  0.7021

 Free energy of the ion-electron system (eV)
  ---------------------------------------------------
  alpha Z        PSCENC =         0.24530478
  Ewald energy   TEWEN  =       129.77413103
  -Hartree energ DENC   =      -285.20893091
  -exchange      EXHF   =         0.00000000
  -V(xc)+E(xc)   XCENC  =        24.81933211
  PAW double counting   =       477.53348800     -478.32353466
  entropy T*S    EENTRO =        -0.00000000
  eigenvalues    EBANDS =       -89.89577547
  atomic energy  EATOM  =       197.04175453
  Solvation  Ediel_sol  =         0.00000000
  ---------------------------------------------------
  free energy    TOTEN  =       -24.01423058 eV

  energy without entropy =      -24.01423058  energy(sigma->0) =      -24.01423058


--------------------------------------------------------------------------------------------------------




--------------------------------------- Iteration      1(  13)  ---------------------------------------


    POTLOK:  cpu time    0.1229: real time    0.1246
    SETDIJ:  cpu time    0.0020: real time    0.0020
    EDDIAG:  cpu time    0.0370: real time    0.0375
  RMM-DIIS:  cpu time    0.1463: real time    0.1482
    ORTHCH:  cpu time    0.0016: real time    0.0016
       DOS:  cpu time    0.0002: real time    0.0002
    CHARGE:  cpu time    0.0174: real time    0.0177
    MIXING:  cpu time    0.0052: real time    0.0053
    --------------------------------------------
      LOOP:  cpu time    0.3326: real time    0.3371

 eigenvalue-minimisations  :    64
 total energy-change (2. order) :-0.3902086E-03  (-0.8323404E-04)
 number of electron       8.0000001 magnetization 
 augmentation part        0.1873190 magnetization 

 Broyden mixing:
  rms(total) = 0.58498E-02    rms(broyden)= 0.58498E-02
  rms(prec ) = 0.77505E-02
  weight for this iteration     100.00

 eigenvalues of (default mixing * dielectric matrix)
  average eigenvalue GAMMA=   2.4226
  6.1416  4.0540  2.5351  2.3417  1.2185  1.2185  0.9989  0.8725

 Free energy of the ion-electron system (eV)
  ---------------------------------------------------
  alpha Z        PSCENC =         0.24530478
  Ewald energy   TEWEN  =       129.77413103
  -Hartree energ DENC   =      -285.39063530
  -exchange      EXHF   =         0.00000000
  -V(xc)+E(xc)   XCENC  =        24.82472255
  PAW double counting   =       477.34734937     -478.13971823
  entropy T*S    EENTRO =        -0.00000000
  eigenvalues    EBANDS =       -89.71752952
  atomic energy  EATOM  =       197.04175453
  Solvation  Ediel_sol  =         0.00000000
  ---------------------------------------------------
  free energy    TOTEN  =       -24.01462079 eV

  energy without entropy =      -24.01462079  energy(sigma->0) =      -24.01462079


--------------------------------------------------------------------------------------------------------




--------------------------------------- Iteration      1(  14)  ---------------------------------------


    POTLOK:  cpu time    0.1204: real time    0.1223
    SETDIJ:  cpu time    0.0020: real time    0.0020
    EDDIAG:  cpu time    0.0364: real time    0.0370
  RMM-DIIS:  cpu time    0.1458: real time    0.1484
    ORTHCH:  cpu time    0.0019: real time    0.0019
       DOS:  cpu time    0.0002: real time    0.0002
    CHARGE:  cpu time    0.0183: real time    0.0186
    MIXING:  cpu time    0.0055: real time    0.0056
    --------------------------------------------
      LOOP:  cpu time    0.3305: real time    0.3360

 eigenvalue-minimisations  :    64
 total energy-change (2. order) :-0.2854219E-02  (-0.1884595E-03)
 number of electron       8.0000001 magnetization 
 augmentation part        0.1871205 magnetization 

 Broyden mixing:
  rms(total) = 0.42186E-02    rms(broyden)= 0.42169E-02
  rms(prec ) = 0.54860E-02
  weight for this iteration     100.00

 eigenvalues of (default mixing * dielectric matrix)
  average eigenvalue GAMMA=   2.3398
  6.4837  4.1264  2.4477  2.4477  1.2366  1.2366  1.1758  0.9960  0.9081

 Free energy of the ion-electron system (eV)
  ---------------------------------------------------
  alpha Z        PSCENC =         0.24530478
  Ewald energy   TEWEN  =       129.77413103
  -Hartree energ DENC   =      -285.43860500
  -exchange      EXHF   =         0.00000000
  -V(xc)+E(xc)   XCENC  =        24.81649966
  PAW double counting   =       476.43156072     -477.22597182
  entropy T*S    EENTRO =        -0.00000000
  eigenvalues    EBANDS =       -89.66214891
  atomic energy  EATOM  =       197.04175453
  Solvation  Ediel_sol  =         0.00000000
  ---------------------------------------------------
  free energy    TOTEN  =       -24.01747501 eV

  energy without entropy =      -24.01747501  energy(sigma->0) =      -24.01747501


--------------------------------------------------------------------------------------------------------




--------------------------------------- Iteration      1(  15)  ---------------------------------------


    POTLOK:  cpu time    0.1207: real time    0.1230
    SETDIJ:  cpu time    0.0020: real time    0.0020
    EDDIAG:  cpu time    0.0374: real time    0.0380
  RMM-DIIS:  cpu time    0.1465: real time    0.1483
    ORTHCH:  cpu time    0.0016: real time    0.0016
       DOS:  cpu time    0.0002: real time    0.0002
    CHARGE:  cpu time    0.0175: real time    0.0176
    MIXING:  cpu time    0.0055: real time    0.0055
    --------------------------------------------
      LOOP:  cpu time    0.3314: real time    0.3363

 eigenvalue-minimisations  :    64
 total energy-change (2. order) :-0.2120619E-03  (-0.1321650E-04)
 number of electron       8.0000001 magnetization 
 augmentation part        0.1871328 magnetization 

 Broyden mixing:
  rms(total) = 0.13258E-02    rms(broyden)= 0.13258E-02
  rms(prec ) = 0.17259E-02
  weight for this iteration     100.00

 eigenvalues of (default mixing * dielectric matrix)
  average eigenvalue GAMMA=   2.5451
  7.5087  4.8968  2.9787  2.5375  2.0243  1.2991  1.2991  1.0148  1.0014  0.8904

 Free energy of the ion-electron system (eV)
  ---------------------------------------------------
  alpha Z        PSCENC =         0.24530478
  Ewald energy   TEWEN  =       129.77413103
  -Hartree energ DENC   =      -285.36628155
  -exchange      EXHF   =         0.00000000
  -V(xc)+E(xc)   XCENC  =        24.81364375
  PAW double counting   =       476.57844076     -477.37168907
  entropy T*S    EENTRO =        -0.00000000
  eigenvalues    EBANDS =       -89.73299131
  atomic energy  EATOM  =       197.04175453
  Solvation  Ediel_sol  =         0.00000000
  ---------------------------------------------------
  free energy    TOTEN  =       -24.01768707 eV

  energy without entropy =      -24.01768707  energy(sigma->0) =      -24.01768707


--------------------------------------------------------------------------------------------------------




--------------------------------------- Iteration      1(  16)  ---------------------------------------


    POTLOK:  cpu time    0.1233: real time    0.1239
    SETDIJ:  cpu time    0.0019: real time    0.0020
    EDDIAG:  cpu time    0.0376: real time    0.0378
  RMM-DIIS:  cpu time    0.1467: real time    0.1473
    ORTHCH:  cpu time    0.0016: real time    0.0016
       DOS:  cpu time    0.0002: real time    0.0002
    CHARGE:  cpu time    0.0173: real time    0.0174
    MIXING:  cpu time    0.0059: real time    0.0059
    --------------------------------------------
      LOOP:  cpu time    0.3346: real time    0.3360

 eigenvalue-minimisations  :    64
 total energy-change (2. order) :-0.2045082E-03  (-0.1178156E-04)
 number of electron       8.0000001 magnetization 
 augmentation part        0.1871948 magnetization 

 Broyden mixing:
  rms(total) = 0.11459E-02    rms(broyden)= 0.11455E-02
  rms(prec ) = 0.15332E-02
  weight for this iteration     100.00

 eigenvalues of (default mixing * dielectric matrix)
  average eigenvalue GAMMA=   2.4707
  7.6432  4.7272  3.4873  2.3392  2.3392  1.2750  1.2750  0.9170  0.9627  1.1059
  1.1059

 Free energy of the ion-electron system (eV)
  ---------------------------------------------------
  alpha Z        PSCENC =         0.24530478
  Ewald energy   TEWEN  =       129.77413103
  -Hartree energ DENC   =      -285.34706265
  -exchange      EXHF   =         0.00000000
  -V(xc)+E(xc)   XCENC  =        24.81357895
  PAW double counting   =       476.66045233     -477.45317846
  entropy T*S    EENTRO =        -0.00000000
  eigenvalues    EBANDS =       -89.75287208
  atomic energy  EATOM  =       197.04175453
  Solvation  Ediel_sol  =         0.00000000
  ---------------------------------------------------
  free energy    TOTEN  =       -24.01789158 eV

  energy without entropy =      -24.01789158  energy(sigma->0) =      -24.01789158


--------------------------------------------------------------------------------------------------------




--------------------------------------- Iteration      1(  17)  ---------------------------------------


    POTLOK:  cpu time    0.1239: real time    0.1248
    SETDIJ:  cpu time    0.0020: real time    0.0020
    EDDIAG:  cpu time    0.0366: real time    0.0367
  RMM-DIIS:  cpu time    0.1480: real time    0.1486
    ORTHCH:  cpu time    0.0016: real time    0.0016
       DOS:  cpu time    0.0002: real time    0.0002
    CHARGE:  cpu time    0.0178: real time    0.0179
    MIXING:  cpu time    0.0062: real time    0.0062
    --------------------------------------------
      LOOP:  cpu time    0.3363: real time    0.3378

 eigenvalue-minimisations  :    64
 total energy-change (2. order) :-0.2359415E-04  (-0.3538545E-05)
 number of electron       8.0000001 magnetization 
 augmentation part        0.1871546 magnetization 

 Broyden mixing:
  rms(total) = 0.24424E-03    rms(broyden)= 0.24416E-03
  rms(prec ) = 0.37561E-03
  weight for this iteration     100.00

 eigenvalues of (default mixing * dielectric matrix)
  average eigenvalue GAMMA=   2.5699
  8.3543  5.1662  3.9763  2.5253  2.5253  1.8449  1.3181  1.3181  1.0351  0.9792
  0.9230  0.8729

 Free energy of the ion-electron system (eV)
  ---------------------------------------------------
  alpha Z        PSCENC =         0.24530478
  Ewald energy   TEWEN  =       129.77413103
  -Hartree energ DENC   =      -285.39611694
  -exchange      EXHF   =         0.00000000
  -V(xc)+E(xc)   XCENC  =        24.81593963
  PAW double counting   =       476.66762173     -477.46078306
  entropy T*S    EENTRO =        -0.00000000
  eigenvalues    EBANDS =       -89.70576687
  atomic energy  EATOM  =       197.04175453
  Solvation  Ediel_sol  =         0.00000000
  ---------------------------------------------------
  free energy    TOTEN  =       -24.01791517 eV

  energy without entropy =      -24.01791517  energy(sigma->0) =      -24.01791517


--------------------------------------------------------------------------------------------------------




--------------------------------------- Iteration      1(  18)  ---------------------------------------


    POTLOK:  cpu time    0.1264: real time    0.1278
    SETDIJ:  cpu time    0.0021: real time    0.0021
    EDDIAG:  cpu time    0.0365: real time    0.0367
  RMM-DIIS:  cpu time    0.1190: real time    0.1196
    ORTHCH:  cpu time    0.0015: real time    0.0015
       DOS:  cpu time    0.0002: real time    0.0002
    CHARGE:  cpu time    0.0177: real time    0.0177
    MIXING:  cpu time    0.0060: real time    0.0060
    --------------------------------------------
      LOOP:  cpu time    0.3094: real time    0.3116

 eigenvalue-minimisations  :    48
 total energy-change (2. order) :-0.1508319E-04  (-0.1080442E-06)
 number of electron       8.0000001 magnetization 
 augmentation part        0.1871555 magnetization 

 Broyden mixing:
  rms(total) = 0.77933E-04    rms(broyden)= 0.77914E-04
  rms(prec ) = 0.12015E-03
  weight for this iteration     100.00

 eigenvalues of (default mixing * dielectric matrix)
  average eigenvalue GAMMA=   2.6090
  8.4010  5.4699  3.6317  3.6317  2.4505  2.2886  1.4832  1.3148  1.3148  0.8923
  1.0795  0.9796  0.9796

 Free energy of the ion-electron system (eV)
  ---------------------------------------------------
  alpha Z        PSCENC =         0.24530478
  Ewald energy   TEWEN  =       129.77413103
  -Hartree energ DENC   =      -285.38369045
  -exchange      EXHF   =         0.00000000
  -V(xc)+E(xc)   XCENC  =        24.81517692
  PAW double counting   =       476.58272992     -477.37581260
  entropy T*S    EENTRO =        -0.00000000
  eigenvalues    EBANDS =       -89.71752439
  atomic energy  EATOM  =       197.04175453
  Solvation  Ediel_sol  =         0.00000000
  ---------------------------------------------------
  free energy    TOTEN  =       -24.01793026 eV

  energy without entropy =      -24.01793026  energy(sigma->0) =      -24.01793026


--------------------------------------------------------------------------------------------------------




--------------------------------------- Iteration      1(  19)  ---------------------------------------


    POTLOK:  cpu time    0.1285: real time    0.1291
    SETDIJ:  cpu time    0.0020: real time    0.0020
    EDDIAG:  cpu time    0.0361: real time    0.0363
  RMM-DIIS:  cpu time    0.1199: real time    0.1204
    ORTHCH:  cpu time    0.0015: real time    0.0015
       DOS:  cpu time    0.0002: real time    0.0002
    CHARGE:  cpu time    0.0178: real time    0.0179
    MIXING:  cpu time    0.0062: real time    0.0062
    --------------------------------------------
      LOOP:  cpu time    0.3123: real time    0.3136

 eigenvalue-minimisations  :    48
 total energy-change (2. order) :-0.3081783E-05  (-0.3349798E-07)
 number of electron       8.0000001 magnetization 
 augmentation part        0.1871578 magnetization 

 Broyden mixing:
  rms(total) = 0.38143E-04    rms(broyden)= 0.38133E-04
  rms(prec ) = 0.52325E-04
  weight for this iteration     100.00

 eigenvalues of (default mixing * dielectric matrix)
  average eigenvalue GAMMA=   2.5374
  8.4237  5.5599  3.7031  3.7031  2.4613  2.4613  1.9235  1.3072  1.3072  1.0389
  0.9610  0.9610  0.8562  0.8562

 Free energy of the ion-electron system (eV)
  ---------------------------------------------------
  alpha Z        PSCENC =         0.24530478
  Ewald energy   TEWEN  =       129.77413103
  -Hartree energ DENC   =      -285.37983548
  -exchange      EXHF   =         0.00000000
  -V(xc)+E(xc)   XCENC  =        24.81487219
  PAW double counting   =       476.56391409     -477.35698965
  entropy T*S    EENTRO =        -0.00000000
  eigenvalues    EBANDS =       -89.72108483
  atomic energy  EATOM  =       197.04175453
  Solvation  Ediel_sol  =         0.00000000
  ---------------------------------------------------
  free energy    TOTEN  =       -24.01793334 eV

  energy without entropy =      -24.01793334  energy(sigma->0) =      -24.01793334


--------------------------------------------------------------------------------------------------------




--------------------------------------- Iteration      1(  20)  ---------------------------------------


    POTLOK:  cpu time    0.1306: real time    0.1311
    SETDIJ:  cpu time    0.0022: real time    0.0022
    EDDIAG:  cpu time    0.0361: real time    0.0366
  RMM-DIIS:  cpu time    0.1180: real time    0.1184
    ORTHCH:  cpu time    0.0015: real time    0.0015
       DOS:  cpu time    0.0002: real time    0.0002
    CHARGE:  cpu time    0.0176: real time    0.0177
    MIXING:  cpu time    0.0075: real time    0.0075
    --------------------------------------------
      LOOP:  cpu time    0.3136: real time    0.3152

 eigenvalue-minimisations  :    44
 total energy-change (2. order) :-0.1258238E-05  (-0.7429497E-08)
 number of electron       8.0000001 magnetization 
 augmentation part        0.1871592 magnetization 

 Broyden mixing:
  rms(total) = 0.21236E-04    rms(broyden)= 0.21234E-04
  rms(prec ) = 0.27256E-04
  weight for this iteration     100.00

 eigenvalues of (default mixing * dielectric matrix)
  average eigenvalue GAMMA=   2.4836
  8.4655  5.5280  4.1673  3.5284  2.4665  2.4665  2.0151  1.3010  1.3010  0.8897
  1.0452  0.9685  0.9685  1.0718  1.0718

 Free energy of the ion-electron system (eV)
  ---------------------------------------------------
  alpha Z        PSCENC =         0.24530478
  Ewald energy   TEWEN  =       129.77413103
  -Hartree energ DENC   =      -285.37965785
  -exchange      EXHF   =         0.00000000
  -V(xc)+E(xc)   XCENC  =        24.81486689
  PAW double counting   =       476.57213948     -477.36520372
  entropy T*S    EENTRO =        -0.00000000
  eigenvalues    EBANDS =       -89.72126974
  atomic energy  EATOM  =       197.04175453
  Solvation  Ediel_sol  =         0.00000000
  ---------------------------------------------------
  free energy    TOTEN  =       -24.01793460 eV

  energy without entropy =      -24.01793460  energy(sigma->0) =      -24.01793460


--------------------------------------------------------------------------------------------------------




--------------------------------------- Iteration      1(  21)  ---------------------------------------


    POTLOK:  cpu time    0.1298: real time    0.1315
    SETDIJ:  cpu time    0.0021: real time    0.0021
    EDDIAG:  cpu time    0.0368: real time    0.0372
  RMM-DIIS:  cpu time    0.1029: real time    0.1033
    ORTHCH:  cpu time    0.0015: real time    0.0015
       DOS:  cpu time    0.0002: real time    0.0002
    --------------------------------------------
      LOOP:  cpu time    0.2733: real time    0.2757

 eigenvalue-minimisations  :    32
 total energy-change (2. order) :-0.1856393E-06  ( 0.0000000E+00)
 number of electron       8.0000001 magnetization 
 augmentation part        0.1871592 magnetization 

 Free energy of the ion-electron system (eV)
  ---------------------------------------------------
  alpha Z        PSCENC =         0.24530478
  Ewald energy   TEWEN  =       129.77413103
  -Hartree energ DENC   =      -285.37921441
  -exchange      EXHF   =         0.00000000
  -V(xc)+E(xc)   XCENC  =        24.81485191
  PAW double counting   =       476.57478062     -477.36783838
  entropy T*S    EENTRO =        -0.00000000
  eigenvalues    EBANDS =       -89.72170487
  atomic energy  EATOM  =       197.04175453
  Solvation  Ediel_sol  =         0.00000000
  ---------------------------------------------------
  free energy    TOTEN  =       -24.01793478 eV

  energy without entropy =      -24.01793478  energy(sigma->0) =      -24.01793478


--------------------------------------------------------------------------------------------------------




 average (electrostatic) potential at core
  the test charge radii are     0.5201  0.6991
  (the norm of the test charge is              1.0000)
       1 -41.4737       2 -41.6369       3 -41.4826       4 -41.5444       5 -57.9190
 
 
 
 E-fermi :  -8.2544     XC(G=0):  -0.7046     alpha+bet : -0.2133


 k-point     1 :       0.2500    0.2500    0.2500
  band No.  band energies     occupation 
      1     -16.9325      2.00000
      2      -9.4197      2.00000
      3      -9.2835      2.00000
      4      -9.2250      2.00000
      5      -0.3059      0.00000
      6       0.5798      0.00000
      7       0.6834      0.00000
      8       0.7089      0.00000

 k-point     2 :      -0.2500    0.2500    0.2500
  band No.  band energies     occupation 
      1     -16.9325      2.00000
      2      -9.4199      2.00000
      3      -9.2836      2.00000
      4      -9.2250      2.00000
      5      -0.3069      0.00000
      6       0.5760      0.00000
      7       0.6863      0.00000
      8       0.7121      0.00000

 k-point     3 :       0.2500   -0.2500    0.2500
  band No.  band energies     occupation 
      1     -16.9325      2.00000
      2      -9.4198      2.00000
      3      -9.2835      2.00000
      4      -9.2250      2.00000
      5      -0.3041      0.00000
      6       0.5676      0.00000
      7       0.6785      0.00000
      8       0.7105      0.00000

 k-point     4 :      -0.2500   -0.2500    0.2500
  band No.  band energies     occupation 
      1     -16.9325      2.00000
      2      -9.4198      2.00000
      3      -9.2835      2.00000
      4      -9.2250      2.00000
      5      -0.3011      0.00000
      6       0.5671      0.00000
      7       0.6746      0.00000
      8       0.6965      0.00000


--------------------------------------------------------------------------------------------------------


 soft charge-density along one line, spin component           1
         0         1         2         3         4         5         6         7         8         9
 total charge-density along one line
 
 pseudopotential strength for first ion, spin component:           1
 -2.341  -4.033  -0.001  -0.001   0.001
 -4.033  -6.864  -0.003  -0.004   0.002
 -0.001  -0.003  -0.337   0.002  -0.001
 -0.001  -0.004   0.002  -0.336  -0.001
  0.001   0.002  -0.001  -0.001  -0.338
 total augmentation occupancy for first ion, spin component:           1
  3.534  -0.636   0.244   0.323  -0.137
 -0.636   0.128  -0.045  -0.060   0.025
  0.244  -0.045   0.023   0.019  -0.008
  0.323  -0.060   0.019   0.034  -0.010
 -0.137   0.025  -0.008  -0.010   0.013


------------------------ aborting loop because EDIFF is reached ----------------------------------------


    CHARGE:  cpu time    0.0177: real time    0.0177
    FORLOC:  cpu time    0.0124: real time    0.0124
    FORNL :  cpu time    0.0200: real time    0.0201
    STRESS:  cpu time    0.1496: real time    0.1507
    FORCOR:  cpu time    0.1317: real time    0.1321
    FORHAR:  cpu time    0.0411: real time    0.0413
    MIXING:  cpu time    0.0065: real time    0.0065
    OFIELD:  cpu time    0.0000: real time    0.0000

  FORCE on cell =-STRESS in cart. coord.  units (eV):
  Direction    XX          YY          ZZ          XY          YZ          ZX
  --------------------------------------------------------------------------------------
  Alpha Z     0.24530     0.24530     0.24530
  Ewald      44.57533    42.93026    42.26849    -1.84970     0.84895     0.50249
  Hartree    96.32341    93.96346    95.09338    -0.52603     0.55927     0.10629
  E(xc)     -27.29648   -27.27791   -27.29453    -0.00790     0.00500     0.00084
  Local    -199.41230  -195.45491  -196.31891     2.01284    -1.39751    -0.47081
  n-local   -16.10950   -16.02855   -16.05049     0.00667     0.02673    -0.01740
  augment     0.11021     0.11241     0.11482     0.00287     0.00050    -0.00137
  Kinetic   101.97517   101.03335   101.84098     0.38953    -0.27317    -0.01708
  Fock        0.00000     0.00000     0.00000     0.00000     0.00000     0.00000
  -------------------------------------------------------------------------------------
  Total       0.41116    -0.47657    -0.10095     0.02827    -0.23023     0.10297
  in kB       0.66706    -0.77318    -0.16378     0.04587    -0.37352     0.16706
  external pressure =       -0.09 kB  Pullay stress =        0.00 kB

  kinetic pressure (ideal gas correction) =      0.00 kB
  total pressure  =     -0.09 kB
  Total+kin.     0.667      -0.773      -0.164       0.046      -0.374       0.167

 VOLUME and BASIS-vectors are now :
 -----------------------------------------------------------------------------
  energy-cutoff  :      400.00
  volume of cell :      987.55
      direct lattice vectors                 reciprocal lattice vectors
     9.834098061  0.000000000  0.000000000     0.101687007  0.000956085 -0.000462666
    -0.094992807 10.103218486  0.000000000     0.000000000  0.098978360 -0.001981394
     0.043353050  0.198973597  9.939508721     0.000000000  0.000000000  0.100608594

  length of vectors
     9.834098061 10.103665048  9.941594620     0.101692554  0.098998191  0.100608594


 FORCES acting on ions
    electron-ion (+dipol)            ewald-force                    non-local-force                 convergence-correction
 -----------------------------------------------------------------------------------------------
   -.169E+02 0.300E+02 0.401E+02   0.186E+02 -.330E+02 -.442E+02   -.175E+01 0.313E+01 0.412E+01   0.189E-04 -.464E-04 -.540E-04
   0.533E+02 -.676E+01 0.306E+01   -.597E+02 0.749E+01 -.344E+01   0.573E+01 -.754E+00 0.315E+00   -.634E-04 0.882E-05 -.298E-05
   -.227E+02 -.479E+02 0.123E+01   0.251E+02 0.528E+02 -.141E+01   -.232E+01 -.498E+01 0.102E+00   0.256E-04 0.719E-04 -.193E-05
   -.125E+02 0.244E+02 -.458E+02   0.139E+02 -.270E+02 0.509E+02   -.132E+01 0.257E+01 -.482E+01   0.116E-04 -.359E-04 0.584E-04
   -.174E+01 0.243E+00 0.170E+01   0.208E+01 -.263E+00 -.190E+01   0.181E+00 0.480E-01 0.567E-01   -.133E-04 0.776E-06 0.821E-05
 -----------------------------------------------------------------------------------------------
   -.527E+00 -.103E-01 0.230E+00   0.000E+00 0.000E+00 0.000E+00   0.527E+00 0.985E-02 -.230E+00   -.207E-04 -.709E-06 0.774E-05
 
 
 POSITION                                       TOTAL-FORCE (eV/Angst)
 -----------------------------------------------------------------------------------
      5.27504      4.18455      3.59160        -0.023093      0.156091     -0.004766
      3.85669      4.94530      4.36514        -0.690135     -0.023493     -0.063560
      5.39185      5.80110      4.40102         0.133897     -0.048677     -0.080126
      5.17804      4.31442      5.35921         0.050662     -0.112872      0.298611
      4.92359      4.80969      4.42471         0.528242      0.028491     -0.149853
 -----------------------------------------------------------------------------------
    total drift:                               -0.000427     -0.000461      0.000305


--------------------------------------------------------------------------------------------------------



  FREE ENERGIE OF THE ION-ELECTRON SYSTEM (eV)
  ---------------------------------------------------
  free  energy   TOTEN  =       -24.01793478 eV

  energy  without entropy=      -24.01793478  energy(sigma->0) =      -24.01793478
 


--------------------------------------------------------------------------------------------------------


    POTLOK:  cpu time    0.1345: real time    0.1349


--------------------------------------------------------------------------------------------------------


           RANDOM_SEED =         172210128                0                0
           RANDOM_SEED =         172210128               30                0
   IONSTEP:  cpu time    0.0032: real time    0.0059

  ENERGY OF THE ELECTRON-ION-THERMOSTAT SYSTEM (eV)
  ---------------------------------------------------
% ion-electron   TOTEN  =       -24.017935  see above
  kinetic energy EKIN   =         0.000200
  kin. lattice  EKIN_LAT=         0.000000  (temperature    0.39 K)
  nose potential ES     =         0.000000
  nose kinetic   EPS    =         0.000000
  ---------------------------------------------------
  total energy   ETOTAL =       -24.017735 eV

  maximum distance moved by ions :      0.17E-03

    WAVPRE:  cpu time    0.0398: real time    0.0403
    FEWALD:  cpu time    0.0004: real time    0.0004
    ORTHCH:  cpu time    0.0087: real time    0.0087
     LOOP+:  cpu time    7.0034: real time    7.1381


--------------------------------------- Iteration      2(   1)  ---------------------------------------


    POTLOK:  cpu time    0.1331: real time    0.1337
    SETDIJ:  cpu time    0.0021: real time    0.0021
     EDDAV:  cpu time    0.1545: real time    0.1552
       DOS:  cpu time    0.0003: real time    0.0003
    CHARGE:  cpu time    0.0175: real time    0.0180
    MIXING:  cpu time    0.0061: real time    0.0061
    --------------------------------------------
      LOOP:  cpu time    0.3136: real time    0.3153

 eigenvalue-minimisations  :    72
 total energy-change (2. order) :-0.1537153E-02  (-0.1754116E-03)
 number of electron       8.0000001 magnetization 
 augmentation part        0.1869547 magnetization 

 Broyden mixing:
  rms(total) = 0.20817E-02    rms(broyden)= 0.20804E-02
  rms(prec ) = 0.25772E-02
  weight for this iteration     100.00

 Free energy of the ion-electron system (eV)
  ---------------------------------------------------
  alpha Z        PSCENC =         0.24530478
  Ewald energy   TEWEN  =       129.63987260
  -Hartree energ DENC   =      -285.30402603
  -exchange      EXHF   =         0.00000000
  -V(xc)+E(xc)   XCENC  =        24.81106123
  PAW double counting   =       476.58103381     -477.37409110
  entropy T*S    EENTRO =        -0.00000000
  eigenvalues    EBANDS =       -89.66038158
  atomic energy  EATOM  =       197.04175453
  Solvation  Ediel_sol  =         0.00000000
  ---------------------------------------------------
  free energy    TOTEN  =       -24.01947175 eV

  energy without entropy =      -24.01947175  energy(sigma->0) =      -24.01947175


--------------------------------------------------------------------------------------------------------




--------------------------------------- Iteration      2(   2)  ---------------------------------------


    POTLOK:  cpu time    0.1337: real time    0.1352
    SETDIJ:  cpu time    0.0020: real time    0.0020
    EDDIAG:  cpu time    0.0365: real time    0.0367
  RMM-DIIS:  cpu time    0.1488: real time    0.1494
    ORTHCH:  cpu time    0.0015: real time    0.0015
       DOS:  cpu time    0.0002: real time    0.0002
    CHARGE:  cpu time    0.0180: real time    0.0181
    MIXING:  cpu time    0.0042: real time    0.0042
    --------------------------------------------
      LOOP:  cpu time    0.3450: real time    0.3473

 eigenvalue-minimisations  :    64
 total energy-change (2. order) : 0.6899612E-05  (-0.4717844E-05)
 number of electron       8.0000001 magnetization 
 augmentation part        0.1869728 magnetization 

 Broyden mixing:
  rms(total) = 0.11181E-02    rms(broyden)= 0.11177E-02
  rms(prec ) = 0.13333E-02
  weight for this iteration     100.00

 eigenvalues of (default mixing * dielectric matrix)
  average eigenvalue GAMMA=   1.7884
  1.7884

 Free energy of the ion-electron system (eV)
  ---------------------------------------------------
  alpha Z        PSCENC =         0.24530478
  Ewald energy   TEWEN  =       129.63987260
  -Hartree energ DENC   =      -285.27705327
  -exchange      EXHF   =         0.00000000
  -V(xc)+E(xc)   XCENC  =        24.80957443
  PAW double counting   =       476.14490258     -476.93765006
  entropy T*S    EENTRO =        -0.00000000
  eigenvalues    EBANDS =       -89.68617043
  atomic energy  EATOM  =       197.04175453
  Solvation  Ediel_sol  =         0.00000000
  ---------------------------------------------------
  free energy    TOTEN  =       -24.01946485 eV

  energy without entropy =      -24.01946485  energy(sigma->0) =      -24.01946485


--------------------------------------------------------------------------------------------------------




--------------------------------------- Iteration      2(   3)  ---------------------------------------


    POTLOK:  cpu time    0.1293: real time    0.1300
    SETDIJ:  cpu time    0.0077: real time    0.0078
    EDDIAG:  cpu time    0.0369: real time    0.0371
  RMM-DIIS:  cpu time    0.1474: real time    0.1485
    ORTHCH:  cpu time    0.0015: real time    0.0015
       DOS:  cpu time    0.0002: real time    0.0002
    CHARGE:  cpu time    0.0177: real time    0.0178
    MIXING:  cpu time    0.0044: real time    0.0044
    --------------------------------------------
      LOOP:  cpu time    0.3450: real time    0.3472

 eigenvalue-minimisations  :    64
 total energy-change (2. order) : 0.9672948E-06  (-0.1664963E-05)
 number of electron       8.0000001 magnetization 
 augmentation part        0.1870021 magnetization 

 Broyden mixing:
  rms(total) = 0.37384E-03    rms(broyden)= 0.37353E-03
  rms(prec ) = 0.45440E-03
  weight for this iteration     100.00

 eigenvalues of (default mixing * dielectric matrix)
  average eigenvalue GAMMA=   1.4570
  1.1073  1.8067

 Free energy of the ion-electron system (eV)
  ---------------------------------------------------
  alpha Z        PSCENC =         0.24530478
  Ewald energy   TEWEN  =       129.63987260
  -Hartree energ DENC   =      -285.25906260
  -exchange      EXHF   =         0.00000000
  -V(xc)+E(xc)   XCENC  =        24.80856660
  PAW double counting   =       475.82058602     -476.61309470
  entropy T*S    EENTRO =        -0.00000000
  eigenvalues    EBANDS =       -89.70339111
  atomic energy  EATOM  =       197.04175453
  Solvation  Ediel_sol  =         0.00000000
  ---------------------------------------------------
  free energy    TOTEN  =       -24.01946388 eV

  energy without entropy =      -24.01946388  energy(sigma->0) =      -24.01946388


--------------------------------------------------------------------------------------------------------




--------------------------------------- Iteration      2(   4)  ---------------------------------------


    POTLOK:  cpu time    0.1295: real time    0.1301
    SETDIJ:  cpu time    0.0021: real time    0.0021
    EDDIAG:  cpu time    0.0364: real time    0.0365
  RMM-DIIS:  cpu time    0.1195: real time    0.1200
    ORTHCH:  cpu time    0.0016: real time    0.0016
       DOS:  cpu time    0.0002: real time    0.0002
    --------------------------------------------
      LOOP:  cpu time    0.2892: real time    0.2905

 eigenvalue-minimisations  :    48
 total energy-change (2. order) : 0.1302691E-06  (-0.4236863E-07)
 number of electron       8.0000001 magnetization 
 augmentation part        0.1870021 magnetization 

 Free energy of the ion-electron system (eV)
  ---------------------------------------------------
  alpha Z        PSCENC =         0.24530478
  Ewald energy   TEWEN  =       129.63987260
  -Hartree energ DENC   =      -285.26383428
  -exchange      EXHF   =         0.00000000
  -V(xc)+E(xc)   XCENC  =        24.80876557
  PAW double counting   =       475.79296043     -476.58552917
  entropy T*S    EENTRO =        -0.00000000
  eigenvalues    EBANDS =       -89.69875821
  atomic energy  EATOM  =       197.04175453
  Solvation  Ediel_sol  =         0.00000000
  ---------------------------------------------------
  free energy    TOTEN  =       -24.01946375 eV

  energy without entropy =      -24.01946375  energy(sigma->0) =      -24.01946375


--------------------------------------------------------------------------------------------------------




 average (electrostatic) potential at core
  the test charge radii are     0.5201  0.6991
  (the norm of the test charge is              1.0000)
       1 -41.4761       2 -41.6227       3 -41.4831       4 -41.5387       5 -57.9224
 
 
 
 E-fermi :  -8.2457     XC(G=0):  -0.6872     alpha+bet : -0.2133


 k-point     1 :       0.2500    0.2500    0.2500
  band No.  band energies     occupation 
      1     -16.9279      2.00000
      2      -9.4146      2.00000
      3      -9.2820      2.00000
      4      -9.2248      2.00000
      5      -0.3004      0.00000
      6       0.5958      0.00000
      7       0.6936      0.00000
      8       0.7215      0.00000

 k-point     2 :      -0.2500    0.2500    0.2500
  band No.  band energies     occupation 
      1     -16.9279      2.00000
      2      -9.4148      2.00000
      3      -9.2821      2.00000
      4      -9.2248      2.00000
      5      -0.3013      0.00000
      6       0.5924      0.00000
      7       0.6955      0.00000
      8       0.7251      0.00000

 k-point     3 :       0.2500   -0.2500    0.2500
  band No.  band energies     occupation 
      1     -16.9279      2.00000
      2      -9.4147      2.00000
      3      -9.2820      2.00000
      4      -9.2248      2.00000
      5      -0.2987      0.00000
      6       0.5841      0.00000
      7       0.6893      0.00000
      8       0.7223      0.00000

 k-point     4 :      -0.2500   -0.2500    0.2500
  band No.  band energies     occupation 
      1     -16.9279      2.00000
      2      -9.4147      2.00000
      3      -9.2820      2.00000
      4      -9.2248      2.00000
      5      -0.2957      0.00000
      6       0.5835      0.00000
      7       0.6855      0.00000
      8       0.7085      0.00000


--------------------------------------------------------------------------------------------------------


 soft charge-density along one line, spin component           1
         0         1         2         3         4         5         6         7         8         9
 total charge-density along one line
 
 pseudopotential strength for first ion, spin component:           1
 -2.341  -4.033  -0.001  -0.001   0.001
 -4.033  -6.864  -0.003  -0.004   0.002
 -0.001  -0.003  -0.337   0.002  -0.001
 -0.001  -0.004   0.002  -0.336  -0.001
  0.001   0.002  -0.001  -0.001  -0.338
 total augmentation occupancy for first ion, spin component:           1
  3.535  -0.636   0.244   0.324  -0.137
 -0.636   0.128  -0.045  -0.060   0.025
  0.244  -0.045   0.023   0.019  -0.008
  0.324  -0.060   0.019   0.034  -0.010
 -0.137   0.025  -0.008  -0.010   0.013


------------------------ aborting loop because EDIFF is reached ----------------------------------------


    CHARGE:  cpu time    0.0176: real time    0.0187
    FORLOC:  cpu time    0.0123: real time    0.0123
    FORNL :  cpu time    0.0199: real time    0.0199
    STRESS:  cpu time    0.1496: real time    0.1500
    FORCOR:  cpu time    0.1327: real time    0.1331
    FORHAR:  cpu time    0.0440: real time    0.0441
    MIXING:  cpu time    0.0057: real time    0.0057
    OFIELD:  cpu time    0.0000: real time    0.0000

  FORCE on cell =-STRESS in cart. coord.  units (eV):
  Direction    XX          YY          ZZ          XY          YZ          ZX
  --------------------------------------------------------------------------------------
  Alpha Z     0.24530     0.24530     0.24530
  Ewald      44.49661    42.87988    42.26334    -1.80316     0.86008     0.47801
  Hartree    96.30433    93.90551    95.05806    -0.51983     0.55121     0.10753
  E(xc)     -27.28957   -27.27171   -27.28791    -0.00778     0.00483     0.00087
  Local    -199.34898  -195.34188  -196.27270     1.97372    -1.39032    -0.45788
  n-local   -16.09161   -16.01711   -16.03769     0.00581     0.02496    -0.01608
  augment     0.11081     0.11250     0.11493     0.00274     0.00037    -0.00125
  Kinetic   101.91955   101.01212   101.79996     0.38348    -0.26483    -0.01921
  Fock        0.00000     0.00000     0.00000     0.00000     0.00000     0.00000
  -------------------------------------------------------------------------------------
  Total       0.34643    -0.47539    -0.11670     0.03497    -0.21369     0.09198
  in kB       0.56204    -0.77126    -0.18933     0.05673    -0.34668     0.14922
  external pressure =       -0.13 kB  Pullay stress =        0.00 kB

  kinetic pressure (ideal gas correction) =      0.00 kB
  total pressure  =     -0.13 kB
  Total+kin.     0.564      -0.771      -0.189       0.057      -0.347       0.149

 VOLUME and BASIS-vectors are now :
 -----------------------------------------------------------------------------
  energy-cutoff  :      400.00
[...]
  PAW double counting   =       458.17800008     -458.96033361
  entropy T*S    EENTRO =        -0.00000000
  eigenvalues    EBANDS =       -89.21370871
  atomic energy  EATOM  =       197.04175453
  Solvation  Ediel_sol  =         0.00000000
  ---------------------------------------------------
  free energy    TOTEN  =       -24.02226281 eV

  energy without entropy =      -24.02226281  energy(sigma->0) =      -24.02226281


--------------------------------------------------------------------------------------------------------




--------------------------------------- Iteration     10(   3)  ---------------------------------------


    POTLOK:  cpu time    0.1306: real time    0.1309
    SETDIJ:  cpu time    0.0021: real time    0.0020
    EDDIAG:  cpu time    0.0365: real time    0.0366
  RMM-DIIS:  cpu time    0.1396: real time    0.1400
    ORTHCH:  cpu time    0.0016: real time    0.0016
       DOS:  cpu time    0.0002: real time    0.0002
    CHARGE:  cpu time    0.0176: real time    0.0176
    MIXING:  cpu time    0.0043: real time    0.0043
    --------------------------------------------
      LOOP:  cpu time    0.3323: real time    0.3333

 eigenvalue-minimisations  :    53
 total energy-change (2. order) :-0.3327694E-05  (-0.2316676E-06)
 number of electron       8.0000000 magnetization 
 augmentation part        0.1835151 magnetization 

 Broyden mixing:
  rms(total) = 0.59958E-04    rms(broyden)= 0.59761E-04
  rms(prec ) = 0.88555E-04
  weight for this iteration     100.00

 eigenvalues of (default mixing * dielectric matrix)
  average eigenvalue GAMMA=   1.2380
  1.2380  1.2380

 Free energy of the ion-electron system (eV)
  ---------------------------------------------------
  alpha Z        PSCENC =         0.24530478
  Ewald energy   TEWEN  =       126.71407227
  -Hartree energ DENC   =      -282.69286687
  -exchange      EXHF   =         0.00000000
  -V(xc)+E(xc)   XCENC  =        24.67297584
  PAW double counting   =       458.16342292     -458.94568231
  entropy T*S    EENTRO =        -0.00000000
  eigenvalues    EBANDS =       -89.22124730
  atomic energy  EATOM  =       197.04175453
  Solvation  Ediel_sol  =         0.00000000
  ---------------------------------------------------
  free energy    TOTEN  =       -24.02226614 eV

  energy without entropy =      -24.02226614  energy(sigma->0) =      -24.02226614


--------------------------------------------------------------------------------------------------------




--------------------------------------- Iteration     10(   4)  ---------------------------------------


    POTLOK:  cpu time    0.1310: real time    0.1313
    SETDIJ:  cpu time    0.0021: real time    0.0021
    EDDIAG:  cpu time    0.0375: real time    0.0376
  RMM-DIIS:  cpu time    0.1194: real time    0.1200
    ORTHCH:  cpu time    0.0018: real time    0.0018
       DOS:  cpu time    0.0002: real time    0.0002
    CHARGE:  cpu time    0.0178: real time    0.0178
    MIXING:  cpu time    0.0044: real time    0.0044
    --------------------------------------------
      LOOP:  cpu time    0.3143: real time    0.3153

 eigenvalue-minimisations  :    48
 total energy-change (2. order) :-0.1011287E-05  (-0.1446660E-07)
 number of electron       8.0000000 magnetization 
 augmentation part        0.1835156 magnetization 

 Broyden mixing:
  rms(total) = 0.30682E-04    rms(broyden)= 0.30655E-04
  rms(prec ) = 0.53466E-04
  weight for this iteration     100.00

 eigenvalues of (default mixing * dielectric matrix)
  average eigenvalue GAMMA=   1.2422
  1.4620  1.4620  0.8026

 Free energy of the ion-electron system (eV)
  ---------------------------------------------------
  alpha Z        PSCENC =         0.24530478
  Ewald energy   TEWEN  =       126.71407227
  -Hartree energ DENC   =      -282.69463447
  -exchange      EXHF   =         0.00000000
  -V(xc)+E(xc)   XCENC  =        24.67306091
  PAW double counting   =       458.16809877     -458.95038311
  entropy T*S    EENTRO =        -0.00000000
  eigenvalues    EBANDS =       -89.21954084
  atomic energy  EATOM  =       197.04175453
  Solvation  Ediel_sol  =         0.00000000
  ---------------------------------------------------
  free energy    TOTEN  =       -24.02226715 eV

  energy without entropy =      -24.02226715  energy(sigma->0) =      -24.02226715


--------------------------------------------------------------------------------------------------------




--------------------------------------- Iteration     10(   5)  ---------------------------------------


    POTLOK:  cpu time    0.1321: real time    0.1325
    SETDIJ:  cpu time    0.0021: real time    0.0021
    EDDIAG:  cpu time    0.0401: real time    0.0403
  RMM-DIIS:  cpu time    0.1098: real time    0.1147
    ORTHCH:  cpu time    0.0019: real time    0.0019
       DOS:  cpu time    0.0002: real time    0.0002
    CHARGE:  cpu time    0.0174: real time    0.0174
    MIXING:  cpu time    0.0045: real time    0.0045
    --------------------------------------------
      LOOP:  cpu time    0.3081: real time    0.3137

 eigenvalue-minimisations  :    39
 total energy-change (2. order) :-0.2298113E-05  (-0.5537614E-08)
 number of electron       8.0000000 magnetization 
 augmentation part        0.1835142 magnetization 

 Broyden mixing:
  rms(total) = 0.35737E-04    rms(broyden)= 0.35732E-04
  rms(prec ) = 0.56802E-04
  weight for this iteration     100.00

 eigenvalues of (default mixing * dielectric matrix)
  average eigenvalue GAMMA=   1.3814
  1.6462  1.1513  1.3641  1.3641

 Free energy of the ion-electron system (eV)
  ---------------------------------------------------
  alpha Z        PSCENC =         0.24530478
  Ewald energy   TEWEN  =       126.71407227
  -Hartree energ DENC   =      -282.69601927
  -exchange      EXHF   =         0.00000000
  -V(xc)+E(xc)   XCENC  =        24.67312620
  PAW double counting   =       458.16765110     -458.94996339
  entropy T*S    EENTRO =        -0.00000000
  eigenvalues    EBANDS =       -89.21819567
  atomic energy  EATOM  =       197.04175453
  Solvation  Ediel_sol  =         0.00000000
  ---------------------------------------------------
  free energy    TOTEN  =       -24.02226945 eV

  energy without entropy =      -24.02226945  energy(sigma->0) =      -24.02226945


--------------------------------------------------------------------------------------------------------




--------------------------------------- Iteration     10(   6)  ---------------------------------------


    POTLOK:  cpu time    0.1321: real time    0.1325
    SETDIJ:  cpu time    0.0026: real time    0.0026
    EDDIAG:  cpu time    0.0360: real time    0.0361
  RMM-DIIS:  cpu time    0.1142: real time    0.1145
    ORTHCH:  cpu time    0.0015: real time    0.0015
       DOS:  cpu time    0.0002: real time    0.0002
    CHARGE:  cpu time    0.0174: real time    0.0175
    MIXING:  cpu time    0.0047: real time    0.0047
    --------------------------------------------
      LOOP:  cpu time    0.3088: real time    0.3096

 eigenvalue-minimisations  :    39
 total energy-change (2. order) :-0.2540446E-05  (-0.5541802E-08)
 number of electron       8.0000000 magnetization 
 augmentation part        0.1835145 magnetization 

 Broyden mixing:
  rms(total) = 0.19134E-04    rms(broyden)= 0.19126E-04
  rms(prec ) = 0.27451E-04
  weight for this iteration     100.00

 eigenvalues of (default mixing * dielectric matrix)
  average eigenvalue GAMMA=   1.5141
  2.3329  1.6530  1.6530  0.9658  0.9658

 Free energy of the ion-electron system (eV)
  ---------------------------------------------------
  alpha Z        PSCENC =         0.24530478
  Ewald energy   TEWEN  =       126.71407227
  -Hartree energ DENC   =      -282.69487799
  -exchange      EXHF   =         0.00000000
  -V(xc)+E(xc)   XCENC  =        24.67307430
  PAW double counting   =       458.16195842     -458.94426889
  entropy T*S    EENTRO =        -0.00000000
  eigenvalues    EBANDS =       -89.21928942
  atomic energy  EATOM  =       197.04175453
  Solvation  Ediel_sol  =         0.00000000
  ---------------------------------------------------
  free energy    TOTEN  =       -24.02227199 eV

  energy without entropy =      -24.02227199  energy(sigma->0) =      -24.02227199


--------------------------------------------------------------------------------------------------------




--------------------------------------- Iteration     10(   7)  ---------------------------------------


    POTLOK:  cpu time    0.1410: real time    0.1414
    SETDIJ:  cpu time    0.0021: real time    0.0021
    EDDIAG:  cpu time    0.0363: real time    0.0364
  RMM-DIIS:  cpu time    0.1149: real time    0.1154
    ORTHCH:  cpu time    0.0016: real time    0.0016
       DOS:  cpu time    0.0002: real time    0.0002
    --------------------------------------------
      LOOP:  cpu time    0.2960: real time    0.2969

 eigenvalue-minimisations  :    44
 total energy-change (2. order) :-0.9187820E-06  (-0.1389378E-07)
 number of electron       8.0000000 magnetization 
 augmentation part        0.1835145 magnetization 

 Free energy of the ion-electron system (eV)
  ---------------------------------------------------
  alpha Z        PSCENC =         0.24530478
  Ewald energy   TEWEN  =       126.71407227
  -Hartree energ DENC   =      -282.69340820
  -exchange      EXHF   =         0.00000000
  -V(xc)+E(xc)   XCENC  =        24.67299871
  PAW double counting   =       458.15991144     -458.94220459
  entropy T*S    EENTRO =        -0.00000000
  eigenvalues    EBANDS =       -89.22070185
  atomic energy  EATOM  =       197.04175453
  Solvation  Ediel_sol  =         0.00000000
  ---------------------------------------------------
  free energy    TOTEN  =       -24.02227291 eV

  energy without entropy =      -24.02227291  energy(sigma->0) =      -24.02227291


--------------------------------------------------------------------------------------------------------




 average (electrostatic) potential at core
  the test charge radii are     0.5201  0.6991
  (the norm of the test charge is              1.0000)
       1 -41.5296       2 -41.3495       3 -41.4993       4 -41.4269       5 -57.9988
 
 
 
 E-fermi :  -8.2778     XC(G=0):  -0.7127     alpha+bet : -0.2133


 k-point     1 :       0.2500    0.2500    0.2500
  band No.  band energies     occupation 
      1     -16.8321      2.00000
      2      -9.3270      2.00000
      3      -9.2497      2.00000
      4      -9.2014      2.00000
      5      -0.3234      0.00000
      6       0.5690      0.00000
      7       0.6773      0.00000
      8       0.7050      0.00000

 k-point     2 :      -0.2500    0.2500    0.2500
  band No.  band energies     occupation 
      1     -16.8321      2.00000
      2      -9.3272      2.00000
      3      -9.2498      2.00000
      4      -9.2014      2.00000
      5      -0.3245      0.00000
      6       0.5676      0.00000
      7       0.6788      0.00000
      8       0.7070      0.00000

 k-point     3 :       0.2500   -0.2500    0.2500
  band No.  band energies     occupation 
      1     -16.8321      2.00000
      2      -9.3271      2.00000
      3      -9.2497      2.00000
      4      -9.2013      2.00000
      5      -0.3212      0.00000
      6       0.5547      0.00000
      7       0.6744      0.00000
      8       0.7035      0.00000

 k-point     4 :      -0.2500   -0.2500    0.2500
  band No.  band energies     occupation 
      1     -16.8321      2.00000
      2      -9.3271      2.00000
      3      -9.2497      2.00000
      4      -9.2013      2.00000
      5      -0.3187      0.00000
      6       0.5551      0.00000
      7       0.6711      0.00000
      8       0.6914      0.00000


--------------------------------------------------------------------------------------------------------


 soft charge-density along one line, spin component           1
         0         1         2         3         4         5         6         7         8         9
 total charge-density along one line
 
 pseudopotential strength for first ion, spin component:           1
 -2.341  -4.034  -0.001  -0.001   0.001
 -4.034  -6.866  -0.003  -0.004   0.002
 -0.001  -0.003  -0.337   0.002  -0.001
 -0.001  -0.004   0.002  -0.336  -0.001
  0.001   0.002  -0.001  -0.001  -0.338
 total augmentation occupancy for first ion, spin component:           1
  3.557  -0.640   0.244   0.332  -0.138
 -0.640   0.129  -0.045  -0.061   0.026
  0.244  -0.045   0.023   0.019  -0.008
  0.332  -0.061   0.019   0.035  -0.011
 -0.138   0.026  -0.008  -0.011   0.014


------------------------ aborting loop because EDIFF is reached ----------------------------------------


    CHARGE:  cpu time    0.0175: real time    0.0175
    FORLOC:  cpu time    0.0122: real time    0.0122
    FORNL :  cpu time    0.0199: real time    0.0200
    STRESS:  cpu time    0.1507: real time    0.1509
    FORCOR:  cpu time    0.1321: real time    0.1329
    FORHAR:  cpu time    0.0420: real time    0.0421
    MIXING:  cpu time    0.0049: real time    0.0049
    OFIELD:  cpu time    0.0000: real time    0.0000

  FORCE on cell =-STRESS in cart. coord.  units (eV):
  Direction    XX          YY          ZZ          XY          YZ          ZX
  --------------------------------------------------------------------------------------
  Alpha Z     0.24530     0.24530     0.24530
  Ewald      43.08831    41.17598    42.44974    -0.34063     0.88357    -0.14781
  Hartree    95.89189    92.45302    94.35121    -0.24779     0.33141     0.09997
  E(xc)     -27.13539   -27.13553   -27.13814    -0.00242     0.00049     0.00074
  Local    -198.17095  -192.20339  -195.58769     0.59851    -1.01849    -0.05928
  n-local   -15.70160   -15.76483   -15.75293    -0.01032    -0.01476     0.01153
  augment     0.12236     0.11635     0.11831    -0.00030    -0.00181     0.00109
  Kinetic   100.64114   100.65885   100.78127     0.12056    -0.03078    -0.03216
  Fock        0.00000     0.00000     0.00000     0.00000     0.00000     0.00000
  -------------------------------------------------------------------------------------
  Total      -1.01893    -0.45424    -0.53293     0.11761     0.14962    -0.12594
  in kB      -1.65309    -0.73695    -0.86462     0.19080     0.24274    -0.20432
  external pressure =       -1.08 kB  Pullay stress =        0.00 kB

  kinetic pressure (ideal gas correction) =      0.01 kB
  total pressure  =     -1.08 kB
  Total+kin.    -1.644      -0.733      -0.860       0.193       0.243      -0.205

 VOLUME and BASIS-vectors are now :
 -----------------------------------------------------------------------------
  energy-cutoff  :      400.00
  volume of cell :      987.55
      direct lattice vectors                 reciprocal lattice vectors
     9.834098061  0.000000000  0.000000000     0.101687007  0.000956085 -0.000462666
    -0.094992807 10.103218486  0.000000000     0.000000000  0.098978360 -0.001981394
     0.043353050  0.198973597  9.939508721     0.000000000  0.000000000  0.100608594

  length of vectors
     9.834098061 10.103665048  9.941594620     0.101692554  0.098998191  0.100608594


 FORCES acting on ions
    electron-ion (+dipol)            ewald-force                    non-local-force                 convergence-correction
 -----------------------------------------------------------------------------------------------
   -.168E+02 0.296E+02 0.404E+02   0.186E+02 -.328E+02 -.447E+02   -.177E+01 0.312E+01 0.424E+01   0.741E-04 -.167E-03 -.205E-03
   0.514E+02 -.603E+01 0.299E+01   -.560E+02 0.655E+01 -.326E+01   0.517E+01 -.612E+00 0.295E+00   -.307E-03 0.345E-04 -.298E-05
   -.230E+02 -.474E+02 0.153E+01   0.254E+02 0.524E+02 -.170E+01   -.239E+01 -.495E+01 0.150E+00   0.107E-03 0.264E-03 0.773E-05
   -.120E+02 0.237E+02 -.451E+02   0.132E+02 -.260E+02 0.494E+02   -.123E+01 0.243E+01 -.462E+01   0.479E-04 -.131E-03 0.255E-03
   0.962E+00 0.993E-01 -.128E+00   -.122E+01 -.104E+00 0.243E+00   -.284E+00 0.151E-01 0.199E+00   -.940E-04 0.774E-06 0.103E-03
 -----------------------------------------------------------------------------------------------
   0.502E+00 0.821E-03 -.259E+00   0.178E-14 0.355E-14 0.000E+00   -.502E+00 -.105E-02 0.260E+00   -.171E-03 0.252E-05 0.157E-03
 
 
 POSITION                                       TOTAL-FORCE (eV/Angst)
 -----------------------------------------------------------------------------------
      5.27379      4.19689      3.58817         0.020246     -0.027324     -0.083941
      3.81858      4.93977      4.36076         0.582804     -0.094005      0.025286
      5.40404      5.79667      4.39346         0.017910     -0.017304     -0.021173
      5.17979      4.30906      5.37723        -0.076121      0.128017     -0.234520
      4.92571      4.80994      4.42449        -0.545082      0.010387      0.314807
 -----------------------------------------------------------------------------------
    total drift:                               -0.000243     -0.000229      0.000459


--------------------------------------------------------------------------------------------------------



  FREE ENERGIE OF THE ION-ELECTRON SYSTEM (eV)
  ---------------------------------------------------
  free  energy   TOTEN  =       -24.02227291 eV

  energy  without entropy=      -24.02227291  energy(sigma->0) =      -24.02227291
 
 d Force =-0.1746783E-02[-0.197E-02,-0.152E-02]  d Energy =-0.1746780E-02-0.251E-08
 d Force = 0.2490021E+00[ 0.249E+00, 0.249E+00]  d Ewald  = 0.2490018E+00 0.244E-06


--------------------------------------------------------------------------------------------------------


    POTLOK:  cpu time    0.1359: real time    0.1362


--------------------------------------------------------------------------------------------------------


           RANDOM_SEED =         172210128               30                0
   IONSTEP:  cpu time    0.0001: real time    0.0001

  ENERGY OF THE ELECTRON-ION-THERMOSTAT SYSTEM (eV)
  ---------------------------------------------------
% ion-electron   TOTEN  =       -24.022273  see above
  kinetic energy EKIN   =         0.004502
  kin. lattice  EKIN_LAT=         0.000000  (temperature    8.71 K)
  nose potential ES     =         0.000000
  nose kinetic   EPS    =         0.000000
  ---------------------------------------------------
  total energy   ETOTAL =       -24.017771 eV

  maximum distance moved by ions :      0.27E-03


 mean value of Nose-termostat <S>:     1.000 mean value of <T> :    11.680
 mean temperature <T/S>/<1/S>  :    11.680

    WAVPRE:  cpu time    0.0490: real time    0.0494
    FEWALD:  cpu time    0.0006: real time    0.0005
    ORTHCH:  cpu time    0.0087: real time    0.0087
 Prediction of Wavefunctions ALPHA= 2.088 BETA=-1.114
    POTLOK:  cpu time    0.1298: real time    0.1301
    EDDIAG:  cpu time    0.0368: real time    0.0377
     LOOP+:  cpu time    2.9465: real time    2.9612
    4ORBIT:  cpu time    0.0000: real time    0.0005

 total amount of memory used by VASP MPI-rank0    54064. kBytes
=======================================================================

   base      :      30000. kBytes
   nonl-proj :       2656. kBytes
   fftplans  :       7642. kBytes
   grid      :      12032. kBytes
   one-center:          6. kBytes
   wavefun   :       1728. kBytes
 
  
  
 General timing and accounting informations for this job:
 ========================================================
  
                  Total CPU time used (sec):       27.563
                            User time (sec):       25.751
                          System time (sec):        1.812
                         Elapsed time (sec):       28.286
  
                   Maximum memory used (kb):      174528.
                   Average memory used (kb):           0.
  
                          Minor page faults:       241477
                          Major page faults:          237
                 Voluntary context switches:          645
