 vasp.5.4.4.18Apr17-6-g9f103f2a35 (build Jul 09 2021 13:05:15) complex          
  
 executed on             LinuxIFC date 2021.11.04  19:03:00
 running on   16 total cores
 distrk:  each k-point on   16 cores,    1 groups
 distr:  one band on NCORES_PER_BAND=   4 cores,    4 groups


--------------------------------------------------------------------------------------------------------


 INCAR:
 POTCAR:    PAW_PBE H 15Jun2001                   
 POTCAR:    PAW_PBE C 08Apr2002                   
 POTCAR:    PAW_PBE H 15Jun2001                   
   VRHFIN =H: ultrasoft test                                                    
   LEXCH  = PE                                                                  
   EATOM  =    12.4884 eV,    0.9179 Ry                                         
                                                                                
   TITEL  = PAW_PBE H 15Jun2001                                                 
   LULTRA =        F    use ultrasoft PP ?                                      
   IUNSCR =        0    unscreen: 0-lin 1-nonlin 2-no                           
   RPACOR =    0.000    partial core radius                                     
   POMASS =    1.000; ZVAL   =    1.000    mass and valenz                      
   RCORE  =    1.100    outmost cutoff radius                                   
   RWIGS  =    0.700; RWIGS  =    0.370    wigner-seitz radius (au A)           
   ENMAX  =  250.000; ENMIN  =  200.000 eV                                      
   RCLOC  =    0.701    cutoff for local pot                                    
   LCOR   =        T    correct aug charges                                     
   LPAW   =        T    paw PP                                                  
   EAUG   =  400.000                                                            
   RMAX   =    1.123    core radius for proj-oper                               
   RAUG   =    1.200    factor for augmentation sphere                          
   RDEP   =    1.112    radius for radial grids                                 
   RDEPT  =    0.926    core radius for aug-charge                              
                                                                                
   Atomic configuration                                                         
    2 entries                                                                   
     n  l   j            E        occ.                                          
     1  0  0.50        -6.4927   1.0000                                         
     2  1  0.50        -3.4015   0.0000                                         
   Description                                                                  
     l       E           TYP  RCUT    TYP  RCUT                                 
     0     -6.4927494     23  1.100                                             
     0      6.8029130     23  1.100                                             
     1     -4.0817478     23  1.100                                             
  local pseudopotential read in
  atomic valenz-charges read in
  non local Contribution for L=           0  read in
    real space projection operators read in
  non local Contribution for L=           0  read in
    real space projection operators read in
  non local Contribution for L=           1  read in
    real space projection operators read in
    PAW grid and wavefunctions read in
 
   number of l-projection  operators is LMAX  =           3
   number of lm-projection operators is LMMAX =           5
 
 POTCAR:    PAW_PBE C 08Apr2002                   
   VRHFIN =C: s2p2                                                              
   LEXCH  = PE                                                                  
   EATOM  =   147.1560 eV,   10.8157 Ry                                         
                                                                                
   TITEL  = PAW_PBE C 08Apr2002                                                 
   LULTRA =        F    use ultrasoft PP ?                                      
   IUNSCR =        1    unscreen: 0-lin 1-nonlin 2-no                           
   RPACOR =    1.200    partial core radius                                     
   POMASS =   12.011; ZVAL   =    4.000    mass and valenz                      
   RCORE  =    1.500    outmost cutoff radius                                   
   RWIGS  =    1.630; RWIGS  =    0.863    wigner-seitz radius (au A)           
   ENMAX  =  400.000; ENMIN  =  300.000 eV                                      
   ICORE  =        2    local potential                                         
   LCOR   =        T    correct aug charges                                     
   LPAW   =        T    paw PP                                                  
   EAUG   =  644.873                                                            
   DEXC   =    0.000                                                            
   RMAX   =    1.529    core radius for proj-oper                               
   RAUG   =    1.300    factor for augmentation sphere                          
   RDEP   =    1.501    radius for radial grids                                 
   RDEPT  =    1.300    core radius for aug-charge                              
                                                                                
   Atomic configuration                                                         
    4 entries                                                                   
     n  l   j            E        occ.                                          
     1  0  0.50      -273.3789   2.0000                                         
     2  0  0.50       -13.7508   2.0000                                         
     2  1  0.50        -5.2854   2.0000                                         
     3  2  1.50        -5.4423   0.0000                                         
   Description                                                                  
     l       E           TYP  RCUT    TYP  RCUT                                 
     0    -13.7508458     23  1.200                                             
     0     -8.2022199     23  1.200                                             
     1     -5.2854383     23  1.500                                             
     1     34.0145650     23  1.500                                             
     2     -5.4423304      7  1.500                                             
  local pseudopotential read in
  partial core-charges read in
  partial kinetic energy density read in
  atomic valenz-charges read in
  non local Contribution for L=           0  read in
    real space projection operators read in
  non local Contribution for L=           0  read in
    real space projection operators read in
  non local Contribution for L=           1  read in
    real space projection operators read in
  non local Contribution for L=           1  read in
    real space projection operators read in
    PAW grid and wavefunctions read in
 
   number of l-projection  operators is LMAX  =           4
   number of lm-projection operators is LMMAX =           8
 
  PAW_PBE H 15Jun2001                   :
 energy of atom  1       EATOM=  -12.4884
 kinetic energy error for atom=    0.0098 (will be added to EATOM!!)
  PAW_PBE C 08Apr2002                   :
 energy of atom  2       EATOM= -147.1560
 kinetic energy error for atom=    0.0288 (will be added to EATOM!!)
 
 
 POSCAR:  H  C                                   
  positions in cartesian coordinates
  No initial velocities read in
 exchange correlation table for  LEXCH =        8
   RHO(1)=    0.500       N(1)  =     2000
   RHO(2)=  100.500       N(2)  =     4000
 


--------------------------------------------------------------------------------------------------------


 ion  position               nearest neighbor table
   1  0.538  0.407  0.361-   5 1.12
   2  0.395  0.480  0.438-   5 1.11
   3  0.551  0.565  0.443-   5 1.12
   4  0.528  0.416  0.539-   5 1.14
   5  0.503  0.467  0.445-   2 1.11   3 1.12   1 1.12   4 1.14
 

IMPORTANT INFORMATION: All symmetrisations will be switched off!
NOSYMM: (Re-)initialisation of all symmetry stuff for point group C_1.

 
 

Automatic generation of k-mesh.
 generate k-points for:    2    2    2
Space group operators:
 irot       det(A)        alpha          n_x          n_y          n_z        tau_x        tau_y        tau_z
    1     1.000000     0.000001     1.000000     0.000000     0.000000     0.000000     0.000000     0.000000
 
 Subroutine IBZKPT returns following result:
 ===========================================
 
 Found      4 irreducible k-points:
 
 Following reciprocal coordinates:
            Coordinates               Weight
  0.250000  0.250000  0.250000      2.000000
 -0.250000  0.250000  0.250000      2.000000
  0.250000 -0.250000  0.250000      2.000000
 -0.250000 -0.250000  0.250000      2.000000
 
 Following cartesian coordinates:
            Coordinates               Weight
  0.024768  0.024237  0.024109      2.000000
 -0.024768  0.024328  0.024935      2.000000
  0.024768 -0.024328  0.023706      2.000000
 -0.024768 -0.024237  0.024532      2.000000
 


--------------------------------------------------------------------------------------------------------




 Dimension of arrays:
   k-points           NKPTS =      4   k-points in BZ     NKDIM =      4   number of bands    NBANDS=      8
   number of dos      NEDOS =    301   number of ions     NIONS =      5
   non local maximal  LDIM  =      4   non local SUM 2l+1 LMDIM =      8
   total plane-waves  NPLWV = 343000
   max r-space proj   IRMAX =      1   max aug-charges    IRDMAX=   3988
   dimension x,y,z NGX =    70 NGY =   70 NGZ =   70
   dimension x,y,z NGXF=   140 NGYF=  140 NGZF=  140
   support grid    NGXF=   140 NGYF=  140 NGZF=  140
   ions per type =               4   1
   NGX,Y,Z   is equivalent  to a cutoff of  11.53, 11.30, 11.32 a.u.
   NGXF,Y,Z  is equivalent  to a cutoff of  23.06, 22.61, 22.64 a.u.

 SYSTEM =  unknown system                          
 POSCAR =   H  C                                   

 Startparameter for this run:
   NWRITE =      2    write-flag & timer
   PREC   = a         normal or accurate (medium, high low for compatibility)
   ISTART =      0    job   : 0-new  1-cont  2-samecut
   ICHARG =      2    charge: 1-file 2-atom 10-const
   ISPIN  =      1    spin polarized calculation?
   LNONCOLLINEAR =      F non collinear calculations
   LSORBIT =      F    spin-orbit coupling
   INIWAV =      1    electr: 0-lowe 1-rand  2-diag
   LASPH  =      F    aspherical Exc in radial PAW
   METAGGA=      F    non-selfconsistent MetaGGA calc.

 Electronic Relaxation 1
   ENCUT  =  400.0 eV  29.40 Ry    5.42 a.u.  16.46 16.79 16.77*2*pi/ulx,y,z
   ENINI  =  400.0     initial cutoff
   ENAUG  =  644.9 eV  augmentation charge cutoff
   NELM   =    120;   NELMIN=  4; NELMDL= -5     # of ELM steps 
   EDIFF  = 0.1E-05   stopping-criterion for ELM
   LREAL  =      F    real-space projection
   NLSPLINE    = F    spline interpolate recip. space projectors
   LCOMPAT=      F    compatible to vasp.4.4
   GGA_COMPAT  = T    GGA compatible to vasp.4.4-vasp.4.6
   LMAXPAW     = -100 max onsite density
   LMAXMIX     =    2 max onsite mixed and CHGCAR
   VOSKOWN=      0    Vosko Wilk Nusair interpolation
   ROPT   =    0.00000   0.00000
 Ionic relaxation
   EDIFFG = 0.1E-04   stopping-criterion for IOM
   NSW    =     10    number of steps for IOM
   NBLOCK =      1;   KBLOCK =     10    inner block; outer block 
   IBRION =      0    ionic relax: 0-MD 1-quasi-New 2-CG
   NFREE  =      0    steps in history (QN), initial steepest desc. (CG)
   ISIF   =      2    stress and relaxation
   IWAVPR =     12    prediction:  0-non 1-charg 2-wave 3-comb
   ISYM   =      0    0-nonsym 1-usesym 2-fastsym
   LCORR  =      T    Harris-Foulkes like correction to forces

   POTIM  = 0.5000    time-step for ionic-motion
   TEIN   =    0.0    initial temperature
   TEBEG  =    0.0;   TEEND  =   0.0 temperature during run
   SMASS  =  -3.00    Nose mass-parameter (am)
   estimated Nose-frequenzy (Omega)   =  0.10E-29 period in steps =****** mass=  -0.233E-26a.u.
   SCALEE = 1.0000    scale energy and forces
   NPACO  =    256;   APACO  = 16.0  distance and # of slots for P.C.
   PSTRESS=    0.0 pullay stress

  Mass of Ions in am
   POMASS =   1.00 12.01
  Ionic Valenz
   ZVAL   =   1.00  4.00
  Atomic Wigner-Seitz radii
   RWIGS  =  -1.00 -1.00
  virtual crystal weights 
   VCA    =   1.00  1.00
   NELECT =       8.0000    total number of electrons
   NUPDOWN=      -1.0000    fix difference up-down

 DOS related values:
   EMIN   =  10.00;   EMAX   =-10.00  energy-range for DOS
   EFERMI =   0.00
   ISMEAR =     0;   SIGMA  =   0.20  broadening in eV -4-tet -1-fermi 0-gaus

 Electronic relaxation 2 (details)
   IALGO  =     68    algorithm
   LDIAG  =      T    sub-space diagonalisation (order eigenvalues)
   LSUBROT=      F    optimize rotation matrix (better conditioning)
   TURBO    =      0    0=normal 1=particle mesh
   IRESTART =      0    0=no restart 2=restart with 2 vectors
   NREBOOT  =      0    no. of reboots
   NMIN     =      0    reboot dimension
   EREF     =   0.00    reference energy to select bands
   IMIX   =      4    mixing-type and parameters
     AMIX     =   0.40;   BMIX     =  1.00
     AMIX_MAG =   1.60;   BMIX_MAG =  1.00
     AMIN     =   0.10
     WC   =   100.;   INIMIX=   1;  MIXPRE=   1;  MAXMIX= -45

 Intra band minimization:
   WEIMIN = 0.0010     energy-eigenvalue tresh-hold
   EBREAK =  0.31E-07  absolut break condition
   DEPER  =   0.30     relativ break condition  

   TIME   =   0.40     timestep for ELM

  volume/ion in A,a.u.               =     213.65      1441.75
  Fermi-wavevector in a.u.,A,eV,Ry     =   0.320295  0.605270  1.395805  0.102589
  Thomas-Fermi vector in A             =   1.206782
 
 Write flags
   LWAVE        =      F    write WAVECAR
   LDOWNSAMPLE  =      F    k-point downsampling of WAVECAR
   LCHARG       =      F    write CHGCAR
   LVTOT        =      F    write LOCPOT, total local potential
   LVHAR        =      F    write LOCPOT, Hartree potential only
   LELF         =      F    write electronic localiz. function (ELF)
   LORBIT       =      0    0 simple, 1 ext, 2 COOP (PROOUT), +10 PAW based schemes


 Dipole corrections
   LMONO  =      F    monopole corrections only (constant potential shift)
   LDIPOL =      F    correct potential (dipole corrections)
   IDIPOL =      0    1-x, 2-y, 3-z, 4-all directions 
   EPSILON=  1.0000000 bulk dielectric constant

 Exchange correlation treatment:
   GGA     =    --    GGA type
   LEXCH   =     8    internal setting for exchange type
   VOSKOWN=      0    Vosko Wilk Nusair interpolation
   LHFCALC =     F    Hartree Fock is set to
   LHFONE  =     F    Hartree Fock one center treatment
   AEXX    =    0.0000 exact exchange contribution

 Linear response parameters
   LEPSILON=     F    determine dielectric tensor
   LRPA    =     F    only Hartree local field effects (RPA)
   LNABLA  =     F    use nabla operator in PAW spheres
   LVEL    =     F    velocity operator in full k-point grid
   LINTERFAST=   F  fast interpolation
   KINTER  =     0    interpolate to denser k-point grid
   CSHIFT  =0.1000    complex shift for real part using Kramers Kronig
   OMEGAMAX=  -1.0    maximum frequency
   DEG_THRESHOLD= 0.2000000E-02 threshold for treating states as degnerate
   RTIME   =   -0.100 relaxation time in fs
  (WPLASMAI=    0.000 imaginary part of plasma frequency in eV, 0.658/RTIME)
   DFIELD  = 0.0000000 0.0000000 0.0000000 field for delta impulse in time
 
 Orbital magnetization related:
   ORBITALMAG=     F  switch on orbital magnetization
   LCHIMAG   =     F  perturbation theory with respect to B field
   DQ        =  0.001000  dq finite difference perturbation B field
   LLRAUG    =     F  two centre corrections for induced B field



--------------------------------------------------------------------------------------------------------


 molecular dynamics for ions
   using a microcanonical ensemble
 charge density and potential will be updated during run
 non-spin polarized calculation
 RMM-DIIS sequential band-by-band and
  variant of blocked Davidson during initial phase
 perform sub-space diagonalisation
    before iterative eigenvector-optimisation
 modified Broyden-mixing scheme, WC =      100.0
 initial mixing is a Kerker type mixing with AMIX =  0.4000 and BMIX =      1.0000
 Hartree-type preconditioning will be used
 using additional bands            4
 reciprocal scheme for non local part
 use partial core corrections
 calculate Harris-corrections to forces 
   (improved forces if not selfconsistent)
 use gradient corrections 
 use of overlap-Matrix (Vanderbilt PP)
 Gauss-broadening in eV      SIGMA  =   0.20


--------------------------------------------------------------------------------------------------------


  energy-cutoff  :      400.00
  volume of cell :     1068.23
      direct lattice vectors                 reciprocal lattice vectors
    10.093862010  0.000000000  0.000000000     0.099070108 -0.000182916 -0.001651874
     0.019008657 10.295369807  0.000000000     0.000000000  0.097131042  0.000806998
     0.171237839 -0.085404317 10.279340382     0.000000000  0.000000000  0.097282507

  length of vectors
    10.093862010 10.295387356 10.281121290     0.099084047  0.097134395  0.097282507


 
 k-points in units of 2pi/SCALE and weight: read from INCAR                         
   0.02476753  0.02423703  0.02410941       0.250
  -0.02476753  0.02432849  0.02493534       0.250
   0.02476753 -0.02432849  0.02370591       0.250
  -0.02476753 -0.02423703  0.02453185       0.250
 
 k-points in reciprocal lattice and weights: read from INCAR                         
   0.25000000  0.25000000  0.25000000       0.250
  -0.25000000  0.25000000  0.25000000       0.250
   0.25000000 -0.25000000  0.25000000       0.250
  -0.25000000 -0.25000000  0.25000000       0.250
 
 position of ions in fractional coordinates (direct lattice) 
   0.53813197  0.40665039  0.36056898
   0.39470704  0.48043852  0.43830349
   0.55132218  0.56514389  0.44289579
   0.52815347  0.41649200  0.53935882
   0.50307678  0.46745962  0.44535369
 
 position of ions in cartesian coordinates  (Angst):
   5.50130274  4.15582199  3.70641127
   4.06830502  4.90885926  4.50547080
   5.65155311  5.78054014  4.55267662
   5.43138388  4.24187556  5.54425294
   5.16313480  4.77463457  4.57794215
 


--------------------------------------------------------------------------------------------------------


 k-point  1 :   0.2500 0.2500 0.2500  plane waves:   19398
 k-point  2 :  -0.2500 0.2500 0.2500  plane waves:   19398
 k-point  3 :   0.2500-0.2500 0.2500  plane waves:   19401
 k-point  4 :  -0.2500-0.2500 0.2500  plane waves:   19414

 maximum and minimum number of plane-waves per node :      4888     4827

 maximum number of plane-waves:     19414
 maximum index in each direction: 
   IXMAX=   16   IYMAX=   17   IZMAX=   16
   IXMIN=  -16   IYMIN=  -17   IZMIN=  -17


 parallel 3D FFT for wavefunctions:
    minimum data exchange during FFTs selected (reduces bandwidth)
 parallel 3D FFT for charge:
    minimum data exchange during FFTs selected (reduces bandwidth)


 total amount of memory used by VASP MPI-rank0    55612. kBytes
=======================================================================

   base      :      30000. kBytes
   nonl-proj :       2874. kBytes
   fftplans  :       8582. kBytes
   grid      :      13527. kBytes
   one-center:          6. kBytes
   wavefun   :        623. kBytes
 
     INWAV:  cpu time    0.0000: real time    0.0000
 Broyden mixing: mesh for mixing (old mesh)
   NGX = 33   NGY = 33   NGZ = 33
  (NGX  =140   NGY  =140   NGZ  =140)
  gives a total of  35937 points

 initial charge density was supplied:
 charge density of overlapping atoms calculated
 number of electron       8.0000000 magnetization 
 keeping initial charge density in first step


--------------------------------------------------------------------------------------------------------


 Maximum index for augmentation-charges          165 (set IRDMAX)


--------------------------------------------------------------------------------------------------------


 First call to EWALD:  gamma=   0.173
 Maximum number of real-space cells 3x 3x 3
 Maximum number of reciprocal cells 3x 3x 3

    FEWALD:  cpu time    0.0044: real time    0.0044


--------------------------------------- Iteration      1(   1)  ---------------------------------------


    POTLOK:  cpu time    0.1660: real time    0.1668
    SETDIJ:  cpu time    0.0021: real time    0.0021
     EDDAV:  cpu time    0.2014: real time    0.2020
       DOS:  cpu time    0.0011: real time    0.0011
    --------------------------------------------
      LOOP:  cpu time    0.3705: real time    0.3720

 eigenvalue-minimisations  :    96
 total energy-change (2. order) : 0.1917687E+02  (-0.1910840E+03)
 number of electron       8.0000000 magnetization 
 augmentation part        8.0000000 magnetization 

 Free energy of the ion-electron system (eV)
  ---------------------------------------------------
  alpha Z        PSCENC =         0.22677786
  Ewald energy   TEWEN  =       126.19425057
  -Hartree energ DENC   =      -243.87989549
  -exchange      EXHF   =         0.00000000
  -V(xc)+E(xc)   XCENC  =        21.88158104
  PAW double counting   =       117.05815612     -117.66307307
  entropy T*S    EENTRO =        -0.05861219
  eigenvalues    EBANDS =       -81.62406698
  atomic energy  EATOM  =       197.04175453
  Solvation  Ediel_sol  =         0.00000000
  ---------------------------------------------------
  free energy    TOTEN  =        19.17687239 eV

  energy without entropy =       19.23548458  energy(sigma->0) =       19.20617849


--------------------------------------------------------------------------------------------------------




--------------------------------------- Iteration      1(   2)  ---------------------------------------


     EDDAV:  cpu time    0.1522: real time    0.1531
       DOS:  cpu time    0.0005: real time    0.0005
    --------------------------------------------
      LOOP:  cpu time    0.1526: real time    0.1536

 eigenvalue-minimisations  :    64
 total energy-change (2. order) :-0.3941629E+02  (-0.3813265E+02)
 number of electron       8.0000000 magnetization 
 augmentation part        8.0000000 magnetization 

 Free energy of the ion-electron system (eV)
  ---------------------------------------------------
  alpha Z        PSCENC =         0.22677786
  Ewald energy   TEWEN  =       126.19425057
  -Hartree energ DENC   =      -243.87989549
  -exchange      EXHF   =         0.00000000
  -V(xc)+E(xc)   XCENC  =        21.88158104
  PAW double counting   =       117.05815612     -117.66307307
  entropy T*S    EENTRO =        -0.00000000
  eigenvalues    EBANDS =      -121.09896680
  atomic energy  EATOM  =       197.04175453
  Solvation  Ediel_sol  =         0.00000000
  ---------------------------------------------------
  free energy    TOTEN  =       -20.23941524 eV

  energy without entropy =      -20.23941524  energy(sigma->0) =      -20.23941524


--------------------------------------------------------------------------------------------------------




--------------------------------------- Iteration      1(   3)  ---------------------------------------


     EDDAV:  cpu time    0.1509: real time    0.1514
       DOS:  cpu time    0.0002: real time    0.0013
    --------------------------------------------
      LOOP:  cpu time    0.1511: real time    0.1527

 eigenvalue-minimisations  :    64
 total energy-change (2. order) :-0.6610422E+01  (-0.6610422E+01)
 number of electron       8.0000000 magnetization 
 augmentation part        8.0000000 magnetization 

 Free energy of the ion-electron system (eV)
  ---------------------------------------------------
  alpha Z        PSCENC =         0.22677786
  Ewald energy   TEWEN  =       126.19425057
  -Hartree energ DENC   =      -243.87989549
  -exchange      EXHF   =         0.00000000
  -V(xc)+E(xc)   XCENC  =        21.88158104
  PAW double counting   =       117.05815612     -117.66307307
  entropy T*S    EENTRO =        -0.00000000
  eigenvalues    EBANDS =      -127.70938846
  atomic energy  EATOM  =       197.04175453
  Solvation  Ediel_sol  =         0.00000000
  ---------------------------------------------------
  free energy    TOTEN  =       -26.84983690 eV

  energy without entropy =      -26.84983690  energy(sigma->0) =      -26.84983690


--------------------------------------------------------------------------------------------------------




--------------------------------------- Iteration      1(   4)  ---------------------------------------


     EDDAV:  cpu time    0.2568: real time    0.2595
       DOS:  cpu time    0.0003: real time    0.0003
    --------------------------------------------
      LOOP:  cpu time    0.2571: real time    0.2598

 eigenvalue-minimisations  :   128
 total energy-change (2. order) :-0.3547195E+00  (-0.3547195E+00)
 number of electron       8.0000000 magnetization 
 augmentation part        8.0000000 magnetization 

 Free energy of the ion-electron system (eV)
  ---------------------------------------------------
  alpha Z        PSCENC =         0.22677786
  Ewald energy   TEWEN  =       126.19425057
  -Hartree energ DENC   =      -243.87989549
  -exchange      EXHF   =         0.00000000
  -V(xc)+E(xc)   XCENC  =        21.88158104
  PAW double counting   =       117.05815612     -117.66307307
  entropy T*S    EENTRO =        -0.00000000
  eigenvalues    EBANDS =      -128.06410797
  atomic energy  EATOM  =       197.04175453
  Solvation  Ediel_sol  =         0.00000000
  ---------------------------------------------------
  free energy    TOTEN  =       -27.20455641 eV

  energy without entropy =      -27.20455641  energy(sigma->0) =      -27.20455641


--------------------------------------------------------------------------------------------------------




--------------------------------------- Iteration      1(   5)  ---------------------------------------


     EDDAV:  cpu time    0.2507: real time    0.2584
       DOS:  cpu time    0.0003: real time    0.0003
    CHARGE:  cpu time    0.0218: real time    0.0220
    MIXING:  cpu time    0.0042: real time    0.0042
    --------------------------------------------
      LOOP:  cpu time    0.2771: real time    0.2850

 eigenvalue-minimisations  :    88
 total energy-change (2. order) :-0.2059643E-03  (-0.2059649E-03)
 number of electron       8.0000002 magnetization 
 augmentation part        0.2168934 magnetization 

 Broyden mixing:
  rms(total) = 0.83027E+00    rms(broyden)= 0.83005E+00
  rms(prec ) = 0.11726E+01
  weight for this iteration     100.00

 Free energy of the ion-electron system (eV)
  ---------------------------------------------------
  alpha Z        PSCENC =         0.22677786
  Ewald energy   TEWEN  =       126.19425057
  -Hartree energ DENC   =      -243.87989549
  -exchange      EXHF   =         0.00000000
  -V(xc)+E(xc)   XCENC  =        21.88158104
  PAW double counting   =       117.05815612     -117.66307307
  entropy T*S    EENTRO =        -0.00000000
  eigenvalues    EBANDS =      -128.06431393
  atomic energy  EATOM  =       197.04175453
  Solvation  Ediel_sol  =         0.00000000
  ---------------------------------------------------
  free energy    TOTEN  =       -27.20476237 eV

  energy without entropy =      -27.20476237  energy(sigma->0) =      -27.20476237


--------------------------------------------------------------------------------------------------------




--------------------------------------- Iteration      1(   6)  ---------------------------------------


    POTLOK:  cpu time    0.1452: real time    0.1455
    SETDIJ:  cpu time    0.0021: real time    0.0021
    EDDIAG:  cpu time    0.0421: real time    0.0423
  RMM-DIIS:  cpu time    0.1548: real time    0.1560
    ORTHCH:  cpu time    0.0019: real time    0.0019
       DOS:  cpu time    0.0002: real time    0.0002
    CHARGE:  cpu time    0.0197: real time    0.0198
    MIXING:  cpu time    0.0047: real time    0.0046
    --------------------------------------------
      LOOP:  cpu time    0.3707: real time    0.3725

 eigenvalue-minimisations  :    64
 total energy-change (2. order) : 0.2632406E+01  (-0.4781111E+00)
 number of electron       8.0000001 magnetization 
 augmentation part        0.1912129 magnetization 

 Broyden mixing:
  rms(total) = 0.41183E+00    rms(broyden)= 0.41172E+00
  rms(prec ) = 0.53080E+00
  weight for this iteration     100.00

 eigenvalues of (default mixing * dielectric matrix)
  average eigenvalue GAMMA=   1.2874
  1.2874

 Free energy of the ion-electron system (eV)
  ---------------------------------------------------
  alpha Z        PSCENC =         0.22677786
  Ewald energy   TEWEN  =       126.19425057
  -Hartree energ DENC   =      -262.69830379
  -exchange      EXHF   =         0.00000000
  -V(xc)+E(xc)   XCENC  =        23.02458209
  PAW double counting   =       230.86188622     -231.62912484
  entropy T*S    EENTRO =        -0.00000000
  eigenvalues    EBANDS =      -107.59417853
  atomic energy  EATOM  =       197.04175453
  Solvation  Ediel_sol  =         0.00000000
  ---------------------------------------------------
  free energy    TOTEN  =       -24.57235590 eV

  energy without entropy =      -24.57235590  energy(sigma->0) =      -24.57235590


--------------------------------------------------------------------------------------------------------




--------------------------------------- Iteration      1(   7)  ---------------------------------------


    POTLOK:  cpu time    0.1450: real time    0.1458
    SETDIJ:  cpu time    0.0022: real time    0.0022
    EDDIAG:  cpu time    0.0395: real time    0.0396
  RMM-DIIS:  cpu time    0.1533: real time    0.1536
    ORTHCH:  cpu time    0.0015: real time    0.0015
       DOS:  cpu time    0.0002: real time    0.0002
    CHARGE:  cpu time    0.0184: real time    0.0185
    MIXING:  cpu time    0.0047: real time    0.0047
    --------------------------------------------
      LOOP:  cpu time    0.3647: real time    0.3659

 eigenvalue-minimisations  :    64
 total energy-change (2. order) : 0.4446413E+00  (-0.9903834E-01)
 number of electron       8.0000001 magnetization 
 augmentation part        0.1816741 magnetization 

 Broyden mixing:
  rms(total) = 0.22114E+00    rms(broyden)= 0.22108E+00
  rms(prec ) = 0.26772E+00
  weight for this iteration     100.00

 eigenvalues of (default mixing * dielectric matrix)
  average eigenvalue GAMMA=   1.8351
  1.4282  2.2420

 Free energy of the ion-electron system (eV)
  ---------------------------------------------------
  alpha Z        PSCENC =         0.22677786
  Ewald energy   TEWEN  =       126.19425057
  -Hartree energ DENC   =      -273.48306257
  -exchange      EXHF   =         0.00000000
  -V(xc)+E(xc)   XCENC  =        23.82465788
  PAW double counting   =       344.52715447     -345.32664044
  entropy T*S    EENTRO =        -0.00000000
  eigenvalues    EBANDS =       -97.13260692
  atomic energy  EATOM  =       197.04175453
  Solvation  Ediel_sol  =         0.00000000
  ---------------------------------------------------
  free energy    TOTEN  =       -24.12771462 eV

  energy without entropy =      -24.12771462  energy(sigma->0) =      -24.12771462


--------------------------------------------------------------------------------------------------------




--------------------------------------- Iteration      1(   8)  ---------------------------------------


    POTLOK:  cpu time    0.1455: real time    0.1459
    SETDIJ:  cpu time    0.0020: real time    0.0020
    EDDIAG:  cpu time    0.0386: real time    0.0387
  RMM-DIIS:  cpu time    0.1550: real time    0.1554
    ORTHCH:  cpu time    0.0019: real time    0.0019
       DOS:  cpu time    0.0002: real time    0.0002
    CHARGE:  cpu time    0.0182: real time    0.0183
    MIXING:  cpu time    0.0046: real time    0.0046
    --------------------------------------------
      LOOP:  cpu time    0.3659: real time    0.3669

 eigenvalue-minimisations  :    64
 total energy-change (2. order) : 0.1421448E+00  (-0.1630460E-01)
 number of electron       8.0000001 magnetization 
 augmentation part        0.1803647 magnetization 

 Broyden mixing:
  rms(total) = 0.23143E-01    rms(broyden)= 0.23118E-01
  rms(prec ) = 0.51695E-01
  weight for this iteration     100.00

 eigenvalues of (default mixing * dielectric matrix)
  average eigenvalue GAMMA=   1.5332
  2.2484  0.9734  1.3779

 Free energy of the ion-electron system (eV)
  ---------------------------------------------------
  alpha Z        PSCENC =         0.22677786
  Ewald energy   TEWEN  =       126.19425057
  -Hartree energ DENC   =      -278.86529371
  -exchange      EXHF   =         0.00000000
  -V(xc)+E(xc)   XCENC  =        24.35798393
  PAW double counting   =       444.20740942     -444.97608781
  entropy T*S    EENTRO =        -0.00000000
  eigenvalues    EBANDS =       -92.17236461
  atomic energy  EATOM  =       197.04175453
  Solvation  Ediel_sol  =         0.00000000
  ---------------------------------------------------
  free energy    TOTEN  =       -23.98556982 eV

  energy without entropy =      -23.98556982  energy(sigma->0) =      -23.98556982


--------------------------------------------------------------------------------------------------------




--------------------------------------- Iteration      1(   9)  ---------------------------------------


    POTLOK:  cpu time    0.2554: real time    0.2563
    SETDIJ:  cpu time    0.0019: real time    0.0019
    EDDIAG:  cpu time    0.0387: real time    0.0391
  RMM-DIIS:  cpu time    0.1544: real time    0.1547
    ORTHCH:  cpu time    0.0015: real time    0.0015
       DOS:  cpu time    0.0002: real time    0.0002
    CHARGE:  cpu time    0.0182: real time    0.0182
    MIXING:  cpu time    0.0048: real time    0.0050
    --------------------------------------------
      LOOP:  cpu time    0.4750: real time    0.4768

 eigenvalue-minimisations  :    64
 total energy-change (2. order) : 0.5511385E-02  (-0.1060305E-02)
 number of electron       8.0000001 magnetization 
 augmentation part        0.1798305 magnetization 

 Broyden mixing:
  rms(total) = 0.18992E-01    rms(broyden)= 0.18988E-01
  rms(prec ) = 0.39260E-01
  weight for this iteration     100.00

 eigenvalues of (default mixing * dielectric matrix)
  average eigenvalue GAMMA=   2.0705
  1.0049  1.3457  2.9656  2.9656

 Free energy of the ion-electron system (eV)
  ---------------------------------------------------
  alpha Z        PSCENC =         0.22677786
  Ewald energy   TEWEN  =       126.19425057
  -Hartree energ DENC   =      -280.07713723
  -exchange      EXHF   =         0.00000000
  -V(xc)+E(xc)   XCENC  =        24.42296708
  PAW double counting   =       446.26766358     -447.03921774
  entropy T*S    EENTRO =        -0.00000000
  eigenvalues    EBANDS =       -91.01711709
  atomic energy  EATOM  =       197.04175453
  Solvation  Ediel_sol  =         0.00000000
  ---------------------------------------------------
  free energy    TOTEN  =       -23.98005844 eV

  energy without entropy =      -23.98005844  energy(sigma->0) =      -23.98005844


--------------------------------------------------------------------------------------------------------




--------------------------------------- Iteration      1(  10)  ---------------------------------------


    POTLOK:  cpu time    0.1446: real time    0.1471
    SETDIJ:  cpu time    0.0024: real time    0.0024
    EDDIAG:  cpu time    0.0388: real time    0.0388
  RMM-DIIS:  cpu time    0.2240: real time    0.2263
    ORTHCH:  cpu time    0.0016: real time    0.0016
       DOS:  cpu time    0.0002: real time    0.0002
    CHARGE:  cpu time    0.0181: real time    0.0182
    MIXING:  cpu time    0.0049: real time    0.0049
    --------------------------------------------
      LOOP:  cpu time    0.4346: real time    0.4395

 eigenvalue-minimisations  :    64
 total energy-change (2. order) : 0.6603840E-02  (-0.2462171E-02)
 number of electron       8.0000001 magnetization 
 augmentation part        0.1788108 magnetization 

 Broyden mixing:
  rms(total) = 0.26716E-01    rms(broyden)= 0.26714E-01
  rms(prec ) = 0.34422E-01
  weight for this iteration     100.00

 eigenvalues of (default mixing * dielectric matrix)
  average eigenvalue GAMMA=   1.7925
  3.0793  2.3777  0.9881  1.2588  1.2588

 Free energy of the ion-electron system (eV)
  ---------------------------------------------------
  alpha Z        PSCENC =         0.22677786
  Ewald energy   TEWEN  =       126.19425057
  -Hartree energ DENC   =      -282.23073394
  -exchange      EXHF   =         0.00000000
  -V(xc)+E(xc)   XCENC  =        24.49369974
  PAW double counting   =       431.79596041     -432.57083028
  entropy T*S    EENTRO =        -0.00000000
  eigenvalues    EBANDS =       -88.92433349
  atomic energy  EATOM  =       197.04175453
  Solvation  Ediel_sol  =         0.00000000
  ---------------------------------------------------
  free energy    TOTEN  =       -23.97345460 eV

  energy without entropy =      -23.97345460  energy(sigma->0) =      -23.97345460


--------------------------------------------------------------------------------------------------------




--------------------------------------- Iteration      1(  11)  ---------------------------------------


    POTLOK:  cpu time    0.1398: real time    0.1402
    SETDIJ:  cpu time    0.0021: real time    0.0021
    EDDIAG:  cpu time    0.0386: real time    0.0391
  RMM-DIIS:  cpu time    0.1515: real time    0.1530
    ORTHCH:  cpu time    0.0014: real time    0.0014
       DOS:  cpu time    0.0002: real time    0.0002
    CHARGE:  cpu time    0.0182: real time    0.0183
    MIXING:  cpu time    0.0051: real time    0.0051
    --------------------------------------------
      LOOP:  cpu time    0.3569: real time    0.3593

 eigenvalue-minimisations  :    64
 total energy-change (2. order) :-0.1068827E-02  (-0.1021274E-02)
 number of electron       8.0000001 magnetization 
 augmentation part        0.1792348 magnetization 

 Broyden mixing:
  rms(total) = 0.11005E-01    rms(broyden)= 0.11001E-01
  rms(prec ) = 0.16404E-01
  weight for this iteration     100.00

 eigenvalues of (default mixing * dielectric matrix)
  average eigenvalue GAMMA=   2.2802
  4.9016  3.0688  2.4229  1.2280  1.0298  1.0298

 Free energy of the ion-electron system (eV)
  ---------------------------------------------------
  alpha Z        PSCENC =         0.22677786
  Ewald energy   TEWEN  =       126.19425057
  -Hartree energ DENC   =      -282.11866168
  -exchange      EXHF   =         0.00000000
  -V(xc)+E(xc)   XCENC  =        24.50825712
  PAW double counting   =       440.46940892     -441.23624198
  entropy T*S    EENTRO =        -0.00000000
  eigenvalues    EBANDS =       -89.06006876
  atomic energy  EATOM  =       197.04175453
  Solvation  Ediel_sol  =         0.00000000
  ---------------------------------------------------
  free energy    TOTEN  =       -23.97452342 eV

  energy without entropy =      -23.97452342  energy(sigma->0) =      -23.97452342


--------------------------------------------------------------------------------------------------------




--------------------------------------- Iteration      1(  12)  ---------------------------------------


    POTLOK:  cpu time    0.1306: real time    0.1312
    SETDIJ:  cpu time    0.0022: real time    0.0022
    EDDIAG:  cpu time    0.0385: real time    0.0385
  RMM-DIIS:  cpu time    0.1556: real time    0.1564
    ORTHCH:  cpu time    0.0019: real time    0.0019
       DOS:  cpu time    0.0002: real time    0.0002
    CHARGE:  cpu time    0.0181: real time    0.0181
    MIXING:  cpu time    0.0050: real time    0.0050
    --------------------------------------------
      LOOP:  cpu time    0.3521: real time    0.3536

 eigenvalue-minimisations  :    64
 total energy-change (2. order) :-0.8846945E-02  (-0.2411899E-03)
 number of electron       8.0000001 magnetization 
 augmentation part        0.1793758 magnetization 

 Broyden mixing:
  rms(total) = 0.11327E-01    rms(broyden)= 0.11326E-01
  rms(prec ) = 0.14948E-01
  weight for this iteration     100.00

 eigenvalues of (default mixing * dielectric matrix)
  average eigenvalue GAMMA=   2.0187
  4.8341  2.9446  2.4155  1.1657  1.0330  1.0330  0.7047

 Free energy of the ion-electron system (eV)
  ---------------------------------------------------
  alpha Z        PSCENC =         0.22677786
  Ewald energy   TEWEN  =       126.19425057
  -Hartree energ DENC   =      -282.36093639
  -exchange      EXHF   =         0.00000000
  -V(xc)+E(xc)   XCENC  =        24.49982215
  PAW double counting   =       436.86110704     -437.62794981
  entropy T*S    EENTRO =        -0.00000000
  eigenvalues    EBANDS =       -88.81819632
  atomic energy  EATOM  =       197.04175453
  Solvation  Ediel_sol  =         0.00000000
  ---------------------------------------------------
  free energy    TOTEN  =       -23.98337037 eV

  energy without entropy =      -23.98337037  energy(sigma->0) =      -23.98337037


--------------------------------------------------------------------------------------------------------




--------------------------------------- Iteration      1(  13)  ---------------------------------------


    POTLOK:  cpu time    0.1308: real time    0.1314
    SETDIJ:  cpu time    0.0019: real time    0.0019
    EDDIAG:  cpu time    0.0382: real time    0.0384
  RMM-DIIS:  cpu time    0.1524: real time    0.1529
    ORTHCH:  cpu time    0.0018: real time    0.0018
       DOS:  cpu time    0.0002: real time    0.0002
    CHARGE:  cpu time    0.0180: real time    0.0180
    MIXING:  cpu time    0.0056: real time    0.0055
    --------------------------------------------
      LOOP:  cpu time    0.3487: real time    0.3501

 eigenvalue-minimisations  :    64
 total energy-change (2. order) :-0.7084315E-03  (-0.1238518E-03)
 number of electron       8.0000001 magnetization 
 augmentation part        0.1791055 magnetization 

 Broyden mixing:
  rms(total) = 0.33161E-02    rms(broyden)= 0.33153E-02
  rms(prec ) = 0.50827E-02
  weight for this iteration     100.00

 eigenvalues of (default mixing * dielectric matrix)
  average eigenvalue GAMMA=   2.4631
  6.2135  4.3080  2.4447  2.4447  1.2062  1.2062  0.9893  0.8924

 Free energy of the ion-electron system (eV)
  ---------------------------------------------------
  alpha Z        PSCENC =         0.22677786
  Ewald energy   TEWEN  =       126.19425057
  -Hartree energ DENC   =      -282.53824726
  -exchange      EXHF   =         0.00000000
  -V(xc)+E(xc)   XCENC  =        24.50423917
  PAW double counting   =       436.62017290     -437.38938463
  entropy T*S    EENTRO =        -0.00000000
  eigenvalues    EBANDS =       -88.64364195
  atomic energy  EATOM  =       197.04175453
  Solvation  Ediel_sol  =         0.00000000
  ---------------------------------------------------
  free energy    TOTEN  =       -23.98407880 eV

  energy without entropy =      -23.98407880  energy(sigma->0) =      -23.98407880


--------------------------------------------------------------------------------------------------------




--------------------------------------- Iteration      1(  14)  ---------------------------------------


    POTLOK:  cpu time    0.1277: real time    0.1284
    SETDIJ:  cpu time    0.0020: real time    0.0020
    EDDIAG:  cpu time    0.0381: real time    0.0382
  RMM-DIIS:  cpu time    0.1550: real time    0.1559
    ORTHCH:  cpu time    0.0016: real time    0.0016
       DOS:  cpu time    0.0002: real time    0.0002
    CHARGE:  cpu time    0.0182: real time    0.0182
    MIXING:  cpu time    0.0066: real time    0.0066
    --------------------------------------------
      LOOP:  cpu time    0.3494: real time    0.3511

 eigenvalue-minimisations  :    64
 total energy-change (2. order) :-0.2890004E-02  (-0.9650883E-04)
 number of electron       8.0000001 magnetization 
 augmentation part        0.1790350 magnetization 

 Broyden mixing:
  rms(total) = 0.21891E-02    rms(broyden)= 0.21877E-02
  rms(prec ) = 0.29132E-02
  weight for this iteration     100.00

 eigenvalues of (default mixing * dielectric matrix)
  average eigenvalue GAMMA=   2.3255
  6.4771  4.0370  2.6403  2.3592  1.1534  1.1534  1.1724  0.9683  0.9683

 Free energy of the ion-electron system (eV)
  ---------------------------------------------------
  alpha Z        PSCENC =         0.22677786
  Ewald energy   TEWEN  =       126.19425057
  -Hartree energ DENC   =      -282.49723378
  -exchange      EXHF   =         0.00000000
  -V(xc)+E(xc)   XCENC  =        24.49275825
  PAW double counting   =       436.12259465     -436.89246650
  entropy T*S    EENTRO =        -0.00000000
  eigenvalues    EBANDS =       -88.67540439
  atomic energy  EATOM  =       197.04175453
  Solvation  Ediel_sol  =         0.00000000
  ---------------------------------------------------
  free energy    TOTEN  =       -23.98696880 eV

  energy without entropy =      -23.98696880  energy(sigma->0) =      -23.98696880


--------------------------------------------------------------------------------------------------------




--------------------------------------- Iteration      1(  15)  ---------------------------------------


    POTLOK:  cpu time    0.1290: real time    0.1293
    SETDIJ:  cpu time    0.0021: real time    0.0021
    EDDIAG:  cpu time    0.0384: real time    0.0388
  RMM-DIIS:  cpu time    0.1538: real time    0.1541
    ORTHCH:  cpu time    0.0015: real time    0.0015
       DOS:  cpu time    0.0002: real time    0.0002
    CHARGE:  cpu time    0.0178: real time    0.0179
    MIXING:  cpu time    0.0056: real time    0.0057
    --------------------------------------------
      LOOP:  cpu time    0.3483: real time    0.3495

 eigenvalue-minimisations  :    64
 total energy-change (2. order) :-0.2304522E-03  (-0.8266694E-05)
 number of electron       8.0000001 magnetization 
 augmentation part        0.1789521 magnetization 

 Broyden mixing:
  rms(total) = 0.24851E-02    rms(broyden)= 0.24848E-02
  rms(prec ) = 0.33109E-02
  weight for this iteration     100.00

 eigenvalues of (default mixing * dielectric matrix)
  average eigenvalue GAMMA=   2.5442
  7.6054  4.8055  2.8996  2.6119  2.2330  1.2276  1.2276  0.9742  0.9643  0.8932

 Free energy of the ion-electron system (eV)
  ---------------------------------------------------
  alpha Z        PSCENC =         0.22677786
  Ewald energy   TEWEN  =       126.19425057
  -Hartree energ DENC   =      -282.55206665
  -exchange      EXHF   =         0.00000000
  -V(xc)+E(xc)   XCENC  =        24.49622325
  PAW double counting   =       436.28227210     -437.05209886
  entropy T*S    EENTRO =        -0.00000000
  eigenvalues    EBANDS =       -88.62431205
  atomic energy  EATOM  =       197.04175453
  Solvation  Ediel_sol  =         0.00000000
  ---------------------------------------------------
  free energy    TOTEN  =       -23.98719926 eV

  energy without entropy =      -23.98719926  energy(sigma->0) =      -23.98719926


--------------------------------------------------------------------------------------------------------




--------------------------------------- Iteration      1(  16)  ---------------------------------------


    POTLOK:  cpu time    0.1302: real time    0.1308
    SETDIJ:  cpu time    0.0020: real time    0.0020
    EDDIAG:  cpu time    0.0380: real time    0.0381
  RMM-DIIS:  cpu time    0.1528: real time    0.1536
    ORTHCH:  cpu time    0.0015: real time    0.0015
       DOS:  cpu time    0.0002: real time    0.0002
    CHARGE:  cpu time    0.0180: real time    0.0180
    MIXING:  cpu time    0.0059: real time    0.0060
    --------------------------------------------
      LOOP:  cpu time    0.3486: real time    0.3503

 eigenvalue-minimisations  :    64
 total energy-change (2. order) :-0.2312461E-03  (-0.1929219E-04)
 number of electron       8.0000001 magnetization 
 augmentation part        0.1790354 magnetization 

 Broyden mixing:
  rms(total) = 0.76523E-03    rms(broyden)= 0.76451E-03
  rms(prec ) = 0.10324E-02
  weight for this iteration     100.00

 eigenvalues of (default mixing * dielectric matrix)
  average eigenvalue GAMMA=   2.5154
  7.9323  4.9162  3.3497  2.4488  2.1220  1.5942  1.2273  1.2273  1.0116  0.9310
  0.9088

 Free energy of the ion-electron system (eV)
  ---------------------------------------------------
  alpha Z        PSCENC =         0.22677786
  Ewald energy   TEWEN  =       126.19425057
  -Hartree energ DENC   =      -282.48469443
  -exchange      EXHF   =         0.00000000
  -V(xc)+E(xc)   XCENC  =        24.49380015
  PAW double counting   =       436.29817974     -437.06718119
  entropy T*S    EENTRO =        -0.00000000
  eigenvalues    EBANDS =       -88.69031773
  atomic energy  EATOM  =       197.04175453
  Solvation  Ediel_sol  =         0.00000000
  ---------------------------------------------------
  free energy    TOTEN  =       -23.98743050 eV

  energy without entropy =      -23.98743050  energy(sigma->0) =      -23.98743050


--------------------------------------------------------------------------------------------------------




--------------------------------------- Iteration      1(  17)  ---------------------------------------


    POTLOK:  cpu time    0.1309: real time    0.1315
    SETDIJ:  cpu time    0.0021: real time    0.0021
    EDDIAG:  cpu time    0.0406: real time    0.0410
  RMM-DIIS:  cpu time    0.1591: real time    0.1623
    ORTHCH:  cpu time    0.0023: real time    0.0023
       DOS:  cpu time    0.0002: real time    0.0002
    CHARGE:  cpu time    0.0178: real time    0.0208
    MIXING:  cpu time    0.0060: real time    0.0063
    --------------------------------------------
      LOOP:  cpu time    0.3589: real time    0.3665

 eigenvalue-minimisations  :    64
 total energy-change (2. order) :-0.3566859E-04  (-0.1364851E-05)
 number of electron       8.0000001 magnetization 
 augmentation part        0.1790197 magnetization 

 Broyden mixing:
  rms(total) = 0.12340E-03    rms(broyden)= 0.12334E-03
  rms(prec ) = 0.21026E-03
  weight for this iteration     100.00

 eigenvalues of (default mixing * dielectric matrix)
  average eigenvalue GAMMA=   2.6160
  8.6329  5.3294  3.9691  2.6336  2.4782  1.8047  1.2791  1.2791  1.1381  0.9886
  0.9593  0.8998

 Free energy of the ion-electron system (eV)
  ---------------------------------------------------
  alpha Z        PSCENC =         0.22677786
  Ewald energy   TEWEN  =       126.19425057
  -Hartree energ DENC   =      -282.51964163
  -exchange      EXHF   =         0.00000000
  -V(xc)+E(xc)   XCENC  =        24.49522830
  PAW double counting   =       436.28630107     -437.05558560
  entropy T*S    EENTRO =        -0.00000000
  eigenvalues    EBANDS =       -88.65655127
  atomic energy  EATOM  =       197.04175453
  Solvation  Ediel_sol  =         0.00000000
  ---------------------------------------------------
  free energy    TOTEN  =       -23.98746617 eV

  energy without entropy =      -23.98746617  energy(sigma->0) =      -23.98746617


--------------------------------------------------------------------------------------------------------




--------------------------------------- Iteration      1(  18)  ---------------------------------------


    POTLOK:  cpu time    0.1785: real time    0.2344
    SETDIJ:  cpu time    0.0040: real time    0.0040
    EDDIAG:  cpu time    0.0811: real time    0.1457
  RMM-DIIS:  cpu time    0.0952: real time    0.1933
    ORTHCH:  cpu time    0.0022: real time    0.0022
       DOS:  cpu time    0.0002: real time    0.0002
    CHARGE:  cpu time    0.0179: real time    0.0181
    MIXING:  cpu time    0.0061: real time    0.0061
    --------------------------------------------
      LOOP:  cpu time    0.3853: real time    0.6041

 eigenvalue-minimisations  :    48
 total energy-change (2. order) :-0.1724005E-04  (-0.8413558E-07)
 number of electron       8.0000001 magnetization 
 augmentation part        0.1790164 magnetization 

 Broyden mixing:
  rms(total) = 0.89629E-04    rms(broyden)= 0.89624E-04
  rms(prec ) = 0.13563E-03
  weight for this iteration     100.00

 eigenvalues of (default mixing * dielectric matrix)
  average eigenvalue GAMMA=   2.5768
  8.6883  5.4879  3.8720  2.8570  2.3789  2.1360  1.6934  1.2330  1.2330  1.0404
  0.9906  0.9906  0.8970

 Free energy of the ion-electron system (eV)
  ---------------------------------------------------
  alpha Z        PSCENC =         0.22677786
  Ewald energy   TEWEN  =       126.19425057
  -Hartree energ DENC   =      -282.51447814
  -exchange      EXHF   =         0.00000000
  -V(xc)+E(xc)   XCENC  =        24.49486718
  PAW double counting   =       436.29604129     -437.06531579
  entropy T*S    EENTRO =        -0.00000000
  eigenvalues    EBANDS =       -88.66138091
  atomic energy  EATOM  =       197.04175453
  Solvation  Ediel_sol  =         0.00000000
  ---------------------------------------------------
  free energy    TOTEN  =       -23.98748341 eV

  energy without entropy =      -23.98748341  energy(sigma->0) =      -23.98748341


--------------------------------------------------------------------------------------------------------




--------------------------------------- Iteration      1(  19)  ---------------------------------------


    POTLOK:  cpu time    0.1362: real time    0.1366
    SETDIJ:  cpu time    0.0019: real time    0.0019
    EDDIAG:  cpu time    0.0377: real time    0.0384
  RMM-DIIS:  cpu time    0.1224: real time    0.1227
    ORTHCH:  cpu time    0.0019: real time    0.0019
       DOS:  cpu time    0.0002: real time    0.0002
    CHARGE:  cpu time    0.0177: real time    0.0177
    MIXING:  cpu time    0.0065: real time    0.0065
    --------------------------------------------
      LOOP:  cpu time    0.3244: real time    0.3259

 eigenvalue-minimisations  :    48
 total energy-change (2. order) :-0.3838020E-05  (-0.1316858E-06)
 number of electron       8.0000001 magnetization 
 augmentation part        0.1790227 magnetization 

 Broyden mixing:
  rms(total) = 0.16041E-03    rms(broyden)= 0.16040E-03
  rms(prec ) = 0.21962E-03
  weight for this iteration     100.00

 eigenvalues of (default mixing * dielectric matrix)
  average eigenvalue GAMMA=   2.5918
  8.7677  5.6790  3.8466  3.7191  2.4542  2.4542  1.9355  1.2629  1.2629  1.0798
  0.9183  0.9183  0.9934  0.9934

 Free energy of the ion-electron system (eV)
  ---------------------------------------------------
  alpha Z        PSCENC =         0.22677786
  Ewald energy   TEWEN  =       126.19425057
  -Hartree energ DENC   =      -282.50450338
  -exchange      EXHF   =         0.00000000
  -V(xc)+E(xc)   XCENC  =        24.49429399
  PAW double counting   =       436.26917468     -437.03836895
  entropy T*S    EENTRO =        -0.00000000
  eigenvalues    EBANDS =       -88.67086656
  atomic energy  EATOM  =       197.04175453
  Solvation  Ediel_sol  =         0.00000000
  ---------------------------------------------------
  free energy    TOTEN  =       -23.98748725 eV

  energy without entropy =      -23.98748725  energy(sigma->0) =      -23.98748725


--------------------------------------------------------------------------------------------------------




--------------------------------------- Iteration      1(  20)  ---------------------------------------


    POTLOK:  cpu time    0.1385: real time    0.1389
    SETDIJ:  cpu time    0.0020: real time    0.0020
    EDDIAG:  cpu time    0.0378: real time    0.0379
  RMM-DIIS:  cpu time    0.1261: real time    0.1261
    ORTHCH:  cpu time    0.0015: real time    0.0015
       DOS:  cpu time    0.0002: real time    0.0002
    CHARGE:  cpu time    0.0180: real time    0.0180
    MIXING:  cpu time    0.0066: real time    0.0066
    --------------------------------------------
      LOOP:  cpu time    0.3306: real time    0.3312

 eigenvalue-minimisations  :    48
 total energy-change (2. order) :-0.1140849E-05  (-0.4073848E-07)
 number of electron       8.0000001 magnetization 
 augmentation part        0.1790199 magnetization 

 Broyden mixing:
  rms(total) = 0.16183E-04    rms(broyden)= 0.16179E-04
  rms(prec ) = 0.25881E-04
  weight for this iteration     100.00

 eigenvalues of (default mixing * dielectric matrix)
  average eigenvalue GAMMA=   2.5024
  8.8004  5.5791  4.2983  3.2918  2.6754  2.3829  1.9772  1.2714  1.2714  1.1330
  1.0282  0.9044  0.9044  1.0088  1.0088

 Free energy of the ion-electron system (eV)
  ---------------------------------------------------
  alpha Z        PSCENC =         0.22677786
  Ewald energy   TEWEN  =       126.19425057
  -Hartree energ DENC   =      -282.50931512
  -exchange      EXHF   =         0.00000000
  -V(xc)+E(xc)   XCENC  =        24.49449562
  PAW double counting   =       436.26621566     -437.03546691
  entropy T*S    EENTRO =        -0.00000000
  eigenvalues    EBANDS =       -88.66620060
  atomic energy  EATOM  =       197.04175453
  Solvation  Ediel_sol  =         0.00000000
  ---------------------------------------------------
  free energy    TOTEN  =       -23.98748839 eV

  energy without entropy =      -23.98748839  energy(sigma->0) =      -23.98748839


--------------------------------------------------------------------------------------------------------




--------------------------------------- Iteration      1(  21)  ---------------------------------------


    POTLOK:  cpu time    0.1386: real time    0.1394
    SETDIJ:  cpu time    0.0020: real time    0.0020
    EDDIAG:  cpu time    0.0381: real time    0.0381
  RMM-DIIS:  cpu time    0.1233: real time    0.1234
    ORTHCH:  cpu time    0.0019: real time    0.0019
       DOS:  cpu time    0.0002: real time    0.0002
    --------------------------------------------
      LOOP:  cpu time    0.3039: real time    0.3049

 eigenvalue-minimisations  :    44
 total energy-change (2. order) :-0.2187922E-06  (-0.6566959E-08)
 number of electron       8.0000001 magnetization 
 augmentation part        0.1790199 magnetization 

 Free energy of the ion-electron system (eV)
  ---------------------------------------------------
  alpha Z        PSCENC =         0.22677786
  Ewald energy   TEWEN  =       126.19425057
  -Hartree energ DENC   =      -282.51062105
  -exchange      EXHF   =         0.00000000
  -V(xc)+E(xc)   XCENC  =        24.49458705
  PAW double counting   =       436.26833200     -437.03758652
  entropy T*S    EENTRO =        -0.00000000
  eigenvalues    EBANDS =       -88.66498306
  atomic energy  EATOM  =       197.04175453
  Solvation  Ediel_sol  =         0.00000000
  ---------------------------------------------------
  free energy    TOTEN  =       -23.98748861 eV

  energy without entropy =      -23.98748861  energy(sigma->0) =      -23.98748861


--------------------------------------------------------------------------------------------------------




 average (electrostatic) potential at core
  the test charge radii are     0.5201  0.6991
  (the norm of the test charge is              1.0000)
       1 -41.3541       2 -41.4619       3 -41.3790       4 -41.2685       5 -58.1121
 
 
 
 E-fermi :  -8.1663     XC(G=0):  -0.6694     alpha+bet : -0.1972


 k-point     1 :       0.2500    0.2500    0.2500
  band No.  band energies     occupation 
      1     -16.7184      2.00000
      2      -9.2456      2.00000
      3      -9.2374      2.00000
      4      -9.1311      2.00000
      5      -0.3553      0.00000
      6       0.5180      0.00000
      7       0.6400      0.00000
      8       0.6659      0.00000

 k-point     2 :      -0.2500    0.2500    0.2500
  band No.  band energies     occupation 
      1     -16.7184      2.00000
      2      -9.2457      2.00000
      3      -9.2372      2.00000
      4      -9.1311      2.00000
      5      -0.3524      0.00000
      6       0.5093      0.00000
      7       0.6271      0.00000
      8       0.6606      0.00000

 k-point     3 :       0.2500   -0.2500    0.2500
  band No.  band energies     occupation 
      1     -16.7184      2.00000
      2      -9.2456      2.00000
      3      -9.2372      2.00000
      4      -9.1311      2.00000
      5      -0.3561      0.00000
      6       0.5149      0.00000
      7       0.6417      0.00000
      8       0.6709      0.00000

 k-point     4 :      -0.2500   -0.2500    0.2500
  band No.  band energies     occupation 
      1     -16.7184      2.00000
      2      -9.2457      2.00000
      3      -9.2374      2.00000
      4      -9.1312      2.00000
      5      -0.3538      0.00000
      6       0.5170      0.00000
      7       0.6374      0.00000
      8       0.6574      0.00000


--------------------------------------------------------------------------------------------------------


 soft charge-density along one line, spin component           1
         0         1         2         3         4         5         6         7         8         9
 total charge-density along one line
 
 pseudopotential strength for first ion, spin component:           1
 -2.340  -4.032  -0.001  -0.001   0.001
 -4.032  -6.861  -0.003  -0.004   0.002
 -0.001  -0.003  -0.339   0.002  -0.001
 -0.001  -0.004   0.002  -0.337  -0.001
  0.001   0.002  -0.001  -0.001  -0.340
 total augmentation occupancy for first ion, spin component:           1
  3.456  -0.625   0.223   0.314  -0.121
 -0.625   0.126  -0.041  -0.059   0.023
  0.223  -0.041   0.020   0.017  -0.007
  0.314  -0.059   0.017   0.032  -0.009
 -0.121   0.023  -0.007  -0.009   0.012


------------------------ aborting loop because EDIFF is reached ----------------------------------------


    CHARGE:  cpu time    0.0181: real time    0.0181
    FORLOC:  cpu time    0.0136: real time    0.0137
    FORNL :  cpu time    0.0209: real time    0.0209
    STRESS:  cpu time    0.1543: real time    0.1547
    FORCOR:  cpu time    0.1394: real time    0.1399
    FORHAR:  cpu time    0.0434: real time    0.0434
    MIXING:  cpu time    0.0065: real time    0.0065
    OFIELD:  cpu time    0.0001: real time    0.0001

  FORCE on cell =-STRESS in cart. coord.  units (eV):
  Direction    XX          YY          ZZ          XY          YZ          ZX
  --------------------------------------------------------------------------------------
  Alpha Z     0.22678     0.22678     0.22678
  Ewald      43.38291    41.95290    40.85841    -0.24811     0.23782     1.37854
  Hartree    95.28916    93.58473    93.63597    -0.07964    -0.14053     0.58866
  E(xc)     -26.95138   -26.93843   -26.94130    -0.00192    -0.00038     0.00741
  Local    -197.50788  -194.48290  -193.81097     0.29660     0.05041    -1.80351
  n-local   -15.39788   -15.32567   -15.29287    -0.00169    -0.02358     0.01208
  augment     0.12442     0.12610     0.12941     0.00019    -0.00128    -0.00095
  Kinetic    99.96324    99.28456    99.39947     0.08543     0.04521    -0.36436
  Fock        0.00000     0.00000     0.00000     0.00000     0.00000     0.00000
  -------------------------------------------------------------------------------------
  Total      -0.87062    -1.57194    -1.79510     0.05087     0.16766    -0.18212
  in kB      -1.30580    -2.35767    -2.69238     0.07630     0.25146    -0.27316
  external pressure =       -2.12 kB  Pullay stress =        0.00 kB

  kinetic pressure (ideal gas correction) =      0.00 kB
  total pressure  =     -2.12 kB
  Total+kin.    -1.306      -2.358      -2.692       0.076       0.251      -0.273

 VOLUME and BASIS-vectors are now :
 -----------------------------------------------------------------------------
  energy-cutoff  :      400.00
  volume of cell :     1068.23
      direct lattice vectors                 reciprocal lattice vectors
    10.093862010  0.000000000  0.000000000     0.099070108 -0.000182916 -0.001651874
     0.019008657 10.295369807  0.000000000     0.000000000  0.097131042  0.000806998
     0.171237839 -0.085404317 10.279340382     0.000000000  0.000000000  0.097282507

  length of vectors
    10.093862010 10.295387356 10.281121290     0.099084047  0.097134395  0.097282507


 FORCES acting on ions
    electron-ion (+dipol)            ewald-force                    non-local-force                 convergence-correction
 -----------------------------------------------------------------------------------------------
   -.156E+02 0.284E+02 0.400E+02   0.170E+02 -.308E+02 -.434E+02   -.154E+01 0.286E+01 0.402E+01   -.386E-04 0.494E-04 0.641E-04
   0.516E+02 -.634E+01 0.336E+01   -.567E+02 0.693E+01 -.362E+01   0.534E+01 -.660E+00 0.373E+00   0.100E-03 -.109E-04 0.172E-05
   -.225E+02 -.463E+02 0.112E+01   0.246E+02 0.504E+02 -.123E+01   -.226E+01 -.469E+01 0.114E+00   -.497E-04 -.720E-04 -.371E-05
   -.120E+02 0.238E+02 -.432E+02   0.129E+02 -.256E+02 0.465E+02   -.118E+01 0.234E+01 -.423E+01   -.301E-04 0.365E-04 -.711E-04
   -.190E+01 0.726E+00 -.155E+01   0.219E+01 -.872E+00 0.175E+01   0.112E+00 -.135E+00 0.556E-01   -.609E-04 0.351E-05 -.435E-04
 -----------------------------------------------------------------------------------------------
   -.462E+00 0.286E+00 -.328E+00   -.533E-14 0.000E+00 0.000E+00   0.462E+00 -.286E+00 0.329E+00   -.790E-04 0.657E-05 -.525E-04
 
 
 POSITION                                       TOTAL-FORCE (eV/Angst)
 -----------------------------------------------------------------------------------
      5.50130      4.15582      3.70641        -0.130957      0.435218      0.578426
      4.06831      4.90886      4.50547         0.249024     -0.063487      0.114207
      5.65155      5.78054      4.55268        -0.219319     -0.637611      0.002639
      5.43138      4.24188      5.54425        -0.296133      0.546238     -0.955929
      5.16313      4.77463      4.57794         0.397034     -0.280536      0.260617
 -----------------------------------------------------------------------------------
    total drift:                               -0.000350     -0.000177     -0.000039


--------------------------------------------------------------------------------------------------------



  FREE ENERGIE OF THE ION-ELECTRON SYSTEM (eV)
  ---------------------------------------------------
  free  energy   TOTEN  =       -23.98748861 eV

  energy  without entropy=      -23.98748861  energy(sigma->0) =      -23.98748861
 


--------------------------------------------------------------------------------------------------------


    POTLOK:  cpu time    0.1404: real time    0.1406


--------------------------------------------------------------------------------------------------------


           RANDOM_SEED =         172260327                0                0
           RANDOM_SEED =         172260327               30                0
   IONSTEP:  cpu time    0.0026: real time    0.0026

  ENERGY OF THE ELECTRON-ION-THERMOSTAT SYSTEM (eV)
  ---------------------------------------------------
% ion-electron   TOTEN  =       -23.987489  see above
  kinetic energy EKIN   =         0.000723
  kin. lattice  EKIN_LAT=         0.000000  (temperature    1.40 K)
  nose potential ES     =         0.000000
  nose kinetic   EPS    =         0.000000
  ---------------------------------------------------
  total energy   ETOTAL =       -23.986765 eV

  maximum distance moved by ions :      0.27E-03

    WAVPRE:  cpu time    0.0424: real time    0.0426
    FEWALD:  cpu time    0.0003: real time    0.0003
    ORTHCH:  cpu time    0.0084: real time    0.0084
     LOOP+:  cpu time    7.6215: real time    7.8874


--------------------------------------- Iteration      2(   1)  ---------------------------------------


    POTLOK:  cpu time    0.1433: real time    0.1436
    SETDIJ:  cpu time    0.0022: real time    0.0022
     EDDAV:  cpu time    0.1962: real time    0.1963
       DOS:  cpu time    0.0002: real time    0.0002
    CHARGE:  cpu time    0.0173: real time    0.0173
    MIXING:  cpu time    0.0061: real time    0.0061
    --------------------------------------------
      LOOP:  cpu time    0.3653: real time    0.3658

 eigenvalue-minimisations  :    96
 total energy-change (2. order) :-0.5655868E-02  (-0.6515774E-03)
 number of electron       8.0000001 magnetization 
 augmentation part        0.1796292 magnetization 

 Broyden mixing:
  rms(total) = 0.44592E-02    rms(broyden)= 0.44570E-02
  rms(prec ) = 0.59239E-02
  weight for this iteration     100.00

 Free energy of the ion-electron system (eV)
  ---------------------------------------------------
  alpha Z        PSCENC =         0.22677786
  Ewald energy   TEWEN  =       126.56948229
  -Hartree energ DENC   =      -282.73414605
  -exchange      EXHF   =         0.00000000
  -V(xc)+E(xc)   XCENC  =        24.50581759
  PAW double counting   =       436.26160501     -437.03085241
  entropy T*S    EENTRO =        -0.00000000
  eigenvalues    EBANDS =       -88.83358308
  atomic energy  EATOM  =       197.04175453
  Solvation  Ediel_sol  =         0.00000000
  ---------------------------------------------------
  free energy    TOTEN  =       -23.99314426 eV

  energy without entropy =      -23.99314426  energy(sigma->0) =      -23.99314426


--------------------------------------------------------------------------------------------------------




--------------------------------------- Iteration      2(   2)  ---------------------------------------


    POTLOK:  cpu time    0.1473: real time    0.1475
    SETDIJ:  cpu time    0.0020: real time    0.0021
    EDDIAG:  cpu time    0.0380: real time    0.0382
  RMM-DIIS:  cpu time    0.1537: real time    0.1545
    ORTHCH:  cpu time    0.0015: real time    0.0015
       DOS:  cpu time    0.0002: real time    0.0002
    CHARGE:  cpu time    0.0180: real time    0.0182
    MIXING:  cpu time    0.0044: real time    0.0044
    --------------------------------------------
      LOOP:  cpu time    0.3652: real time    0.3665

 eigenvalue-minimisations  :    64
 total energy-change (2. order) : 0.6055422E-04  (-0.1939029E-04)
 number of electron       8.0000001 magnetization 
 augmentation part        0.1795256 magnetization 

 Broyden mixing:
  rms(total) = 0.17831E-02    rms(broyden)= 0.17828E-02
  rms(prec ) = 0.21862E-02
  weight for this iteration     100.00

 eigenvalues of (default mixing * dielectric matrix)
  average eigenvalue GAMMA=   1.5041
  1.5041

 Free energy of the ion-electron system (eV)
  ---------------------------------------------------
  alpha Z        PSCENC =         0.22677786
  Ewald energy   TEWEN  =       126.56948229
  -Hartree energ DENC   =      -282.81409334
  -exchange      EXHF   =         0.00000000
  -V(xc)+E(xc)   XCENC  =        24.51006501
  PAW double counting   =       437.20293269     -437.97311890
  entropy T*S    EENTRO =        -0.00000000
  eigenvalues    EBANDS =       -88.75688385
  atomic energy  EATOM  =       197.04175453
  Solvation  Ediel_sol  =         0.00000000
  ---------------------------------------------------
  free energy    TOTEN  =       -23.99308370 eV

  energy without entropy =      -23.99308370  energy(sigma->0) =      -23.99308370


--------------------------------------------------------------------------------------------------------




--------------------------------------- Iteration      2(   3)  ---------------------------------------


    POTLOK:  cpu time    0.1447: real time    0.1449
    SETDIJ:  cpu time    0.0020: real time    0.0020
    EDDIAG:  cpu time    0.0379: real time    0.0380
  RMM-DIIS:  cpu time    0.1540: real time    0.1541
    ORTHCH:  cpu time    0.0018: real time    0.0018
       DOS:  cpu time    0.0002: real time    0.0002
    CHARGE:  cpu time    0.0181: real time    0.0181
    MIXING:  cpu time    0.0047: real time    0.0047
    --------------------------------------------
      LOOP:  cpu time    0.3633: real time    0.3637

 eigenvalue-minimisations  :    64
 total energy-change (2. order) :-0.1106153E-07  (-0.7617705E-05)
 number of electron       8.0000001 magnetization 
 augmentation part        0.1794609 magnetization 

 Broyden mixing:
  rms(total) = 0.82652E-03    rms(broyden)= 0.82590E-03
  rms(prec ) = 0.92945E-03
  weight for this iteration     100.00

 eigenvalues of (default mixing * dielectric matrix)
  average eigenvalue GAMMA=   1.8736
  1.8736  1.8736

 Free energy of the ion-electron system (eV)
  ---------------------------------------------------
  alpha Z        PSCENC =         0.22677786
  Ewald energy   TEWEN  =       126.56948229
  -Hartree energ DENC   =      -282.85114693
  -exchange      EXHF   =         0.00000000
  -V(xc)+E(xc)   XCENC  =        24.51219270
  PAW double counting   =       437.89488941     -438.66551970
  entropy T*S    EENTRO =        -0.00000000
  eigenvalues    EBANDS =       -88.72151388
  atomic energy  EATOM  =       197.04175453
  Solvation  Ediel_sol  =         0.00000000
  ---------------------------------------------------
  free energy    TOTEN  =       -23.99308371 eV

  energy without entropy =      -23.99308371  energy(sigma->0) =      -23.99308371


--------------------------------------------------------------------------------------------------------




--------------------------------------- Iteration      2(   4)  ---------------------------------------


    POTLOK:  cpu time    0.1446: real time    0.1449
    SETDIJ:  cpu time    0.0019: real time    0.0019
    EDDIAG:  cpu time    0.0380: real time    0.0380
  RMM-DIIS:  cpu time    0.1536: real time    0.1562
    ORTHCH:  cpu time    0.0019: real time    0.0019
       DOS:  cpu time    0.0002: real time    0.0002
    --------------------------------------------
      LOOP:  cpu time    0.3401: real time    0.3431

 eigenvalue-minimisations  :    64
 total energy-change (2. order) :-0.6052148E-06  (-0.5188839E-06)
 number of electron       8.0000001 magnetization 
 augmentation part        0.1794609 magnetization 

 Free energy of the ion-electron system (eV)
  ---------------------------------------------------
  alpha Z        PSCENC =         0.22677786
  Ewald energy   TEWEN  =       126.56948229
  -Hartree energ DENC   =      -282.83694506
  -exchange      EXHF   =         0.00000000
  -V(xc)+E(xc)   XCENC  =        24.51179011
  PAW double counting   =       438.25165372     -439.02207955
  entropy T*S    EENTRO =        -0.00000000
  eigenvalues    EBANDS =       -88.73551822
  atomic energy  EATOM  =       197.04175453
  Solvation  Ediel_sol  =         0.00000000
  ---------------------------------------------------
  free energy    TOTEN  =       -23.99308432 eV

  energy without entropy =      -23.99308432  energy(sigma->0) =      -23.99308432


--------------------------------------------------------------------------------------------------------




 average (electrostatic) potential at core
  the test charge radii are     0.5201  0.6991
  (the norm of the test charge is              1.0000)
       1 -41.3644       2 -41.4640       3 -41.3881       4 -41.2847       5 -58.1044
 
 
 
 E-fermi :  -8.1802     XC(G=0):  -0.6910     alpha+bet : -0.1972


 k-point     1 :       0.2500    0.2500    0.2500
  band No.  band energies     occupation 
      1     -16.7316      2.00000
      2      -9.2515      2.00000
      3      -9.2437      2.00000
      4      -9.1409      2.00000
      5      -0.3591      0.00000
      6       0.5001      0.00000
      7       0.6271      0.00000
      8       0.6516      0.00000

 k-point     2 :      -0.2500    0.2500    0.2500
  band No.  band energies     occupation 
      1     -16.7317      2.00000
      2      -9.2515      2.00000
      3      -9.2436      2.00000
      4      -9.1409      2.00000
      5      -0.3560      0.00000
      6       0.4911      0.00000
      7       0.6142      0.00000
      8       0.6456      0.00000

 k-point     3 :       0.2500   -0.2500    0.2500
  band No.  band energies     occupation 
      1     -16.7317      2.00000
      2      -9.2515      2.00000
      3      -9.2436      2.00000
      4      -9.1409      2.00000
      5      -0.3599      0.00000
      6       0.4973      0.00000
      7       0.6286      0.00000
      8       0.6564      0.00000

 k-point     4 :      -0.2500   -0.2500    0.2500
  band No.  band energies     occupation 
      1     -16.7317      2.00000
      2      -9.2516      2.00000
      3      -9.2437      2.00000
      4      -9.1410      2.00000
      5      -0.3575      0.00000
      6       0.4978      0.00000
      7       0.6242      0.00000
      8       0.6441      0.00000


--------------------------------------------------------------------------------------------------------


 soft charge-density along one line, spin component           1
         0         1         2         3         4         5         6         7         8         9
 total charge-density along one line
 
 pseudopotential strength for first ion, spin component:           1
 -2.340  -4.032  -0.001  -0.001   0.001
 -4.032  -6.861  -0.003  -0.004   0.002
 -0.001  -0.003  -0.338   0.002  -0.001
 -0.001  -0.004   0.002  -0.337  -0.001
  0.001   0.002  -0.001  -0.001  -0.339
 total augmentation occupancy for first ion, spin component:           1
  3.463  -0.626   0.224   0.316  -0.122
 -0.626   0.127  -0.042  -0.059   0.023
  0.224  -0.042   0.020   0.017  -0.007
  0.316  -0.059   0.017   0.032  -0.009
 -0.122   0.023  -0.007  -0.009   0.012


------------------------ aborting loop because EDIFF is reached ----------------------------------------


    CHARGE:  cpu time    0.0181: real time    0.0182
    FORLOC:  cpu time    0.0139: real time    0.0139
    FORNL :  cpu time    0.0209: real time    0.0209
    STRESS:  cpu time    0.1544: real time    0.1547
    FORCOR:  cpu time    0.1418: real time    0.1419
    FORHAR:  cpu time    0.0479: real time    0.0479
    MIXING:  cpu time    0.0059: real time    0.0059
    OFIELD:  cpu time    0.0000: real time    0.0000

  FORCE on cell =-STRESS in cart. coord.  units (eV):
  Direction    XX          YY          ZZ          XY          YZ          ZX
  --------------------------------------------------------------------------------------
  Alpha Z     0.22678     0.22678     0.22678
  Ewald      43.47338    42.07255    41.02352    -0.24399     0.21506     1.36269
  Hartree    95.42198    93.69155    93.73904    -0.07741    -0.13778     0.58046
  E(xc)     -26.96956   -26.95704   -26.95993    -0.00188    -0.00034     0.00724
  Local    -197.73633  -194.68720  -194.03987     0.29041     0.06105    -1.77962
  n-local   -15.43390   -15.36635   -15.33580    -0.00157    -0.02219     0.01151
  augment     0.12389     0.12530     0.12848     0.00018    -0.00121    -0.00096
  Kinetic   100.06326    99.40605    99.52353     0.08351     0.04216    -0.35651
  Fock        0.00000     0.00000     0.00000     0.00000     0.00000     0.00000
  -------------------------------------------------------------------------------------
  Total      -0.83050    -1.48836    -1.69425     0.04926     0.15673    -0.17518
  in kB      -1.24562    -2.23231    -2.54111     0.07388     0.23508    -0.26274
  external pressure =       -2.01 kB  Pullay stress =        0.00 kB

  kinetic pressure (ideal gas correction) =      0.00 kB
  total pressure  =     -2.00 kB
  Total+kin.    -1.245      -2.229      -2.537       0.074       0.234      -0.262

 VOLUME and BASIS-vectors are now :
 -----------------------------------------------------------------------------
  energy-cutoff  :      400.00
[...]
 -----------------------------------------------------------------------------------------------
   0.397E+00 -.228E+00 0.294E+00   0.355E-14 0.000E+00 0.000E+00   -.397E+00 0.228E+00 -.294E+00   -.558E-06 -.475E-04 -.450E-04
 
 
 POSITION                                       TOTAL-FORCE (eV/Angst)
 -----------------------------------------------------------------------------------
      5.49603      4.18077      3.73848         0.201638     -0.292708     -0.441356
      4.08231      4.90469      4.51393        -0.172951      0.014494      0.022618
      5.64087      5.74454      4.55245         0.243113      0.445337     -0.020285
      5.41414      4.27268      5.49121         0.201715     -0.426173      0.799924
      5.16473      4.77334      4.57900        -0.473395      0.259125     -0.360680
 -----------------------------------------------------------------------------------
    total drift:                                0.000120      0.000075      0.000220


--------------------------------------------------------------------------------------------------------



  FREE ENERGIE OF THE ION-ELECTRON SYSTEM (eV)
  ---------------------------------------------------
  free  energy   TOTEN  =       -24.00834111 eV

  energy  without entropy=      -24.00834111  energy(sigma->0) =      -24.00834111
 
 d Force =-0.1122495E-01[-0.135E-01,-0.890E-02]  d Energy =-0.1120632E-01-0.186E-04
 d Force =-0.1234691E+01[-0.124E+01,-0.123E+01]  d Ewald  =-0.1234670E+01-0.211E-04


--------------------------------------------------------------------------------------------------------


    POTLOK:  cpu time    0.1371: real time    0.1371


--------------------------------------------------------------------------------------------------------


           RANDOM_SEED =         172260327               30                0
   IONSTEP:  cpu time    0.0001: real time    0.0001

  ENERGY OF THE ELECTRON-ION-THERMOSTAT SYSTEM (eV)
  ---------------------------------------------------
% ion-electron   TOTEN  =       -24.008341  see above
  kinetic energy EKIN   =         0.021167
  kin. lattice  EKIN_LAT=         0.000000  (temperature   40.94 K)
  nose potential ES     =         0.000000
  nose kinetic   EPS    =         0.000000
  ---------------------------------------------------
  total energy   ETOTAL =       -23.987174 eV

  maximum distance moved by ions :      0.59E-03

    WAVPRE:  cpu time    0.0476: real time    0.0480
    FEWALD:  cpu time    0.0005: real time    0.0005
    ORTHCH:  cpu time    0.0083: real time    0.0083
 Prediction of Wavefunctions ALPHA= 2.239 BETA=-1.278
     LOOP+:  cpu time    1.8785: real time    1.8841


--------------------------------------- Iteration     10(   1)  ---------------------------------------


    POTLOK:  cpu time    0.1333: real time    0.1343
    SETDIJ:  cpu time    0.0020: real time    0.0020
     EDDAV:  cpu time    0.1467: real time    0.1470
       DOS:  cpu time    0.0002: real time    0.0002
    CHARGE:  cpu time    0.0177: real time    0.0177
    MIXING:  cpu time    0.0042: real time    0.0042
    --------------------------------------------
      LOOP:  cpu time    0.3042: real time    0.3055

 eigenvalue-minimisations  :    64
 total energy-change (2. order) : 0.1121666E-01  (-0.7559153E-04)
 number of electron       8.0000001 magnetization 
 augmentation part        0.1908053 magnetization 

 Broyden mixing:
  rms(total) = 0.41590E-03    rms(broyden)= 0.41487E-03
  rms(prec ) = 0.45429E-03
  weight for this iteration     100.00

 Free energy of the ion-electron system (eV)
  ---------------------------------------------------
  alpha Z        PSCENC =         0.22677786
  Ewald energy   TEWEN  =       136.14900911
  -Hartree energ DENC   =      -291.26901168
  -exchange      EXHF   =         0.00000000
  -V(xc)+E(xc)   XCENC  =        24.95722057
  PAW double counting   =       496.03639168     -496.84058886
  entropy T*S    EENTRO =        -0.00000000
  eigenvalues    EBANDS =       -90.29867723
  atomic energy  EATOM  =       197.04175453
  Solvation  Ediel_sol  =         0.00000000
  ---------------------------------------------------
  free energy    TOTEN  =       -23.99712401 eV

  energy without entropy =      -23.99712401  energy(sigma->0) =      -23.99712401


--------------------------------------------------------------------------------------------------------




--------------------------------------- Iteration     10(   2)  ---------------------------------------


    POTLOK:  cpu time    0.1323: real time    0.1329
    SETDIJ:  cpu time    0.0023: real time    0.0023
    EDDIAG:  cpu time    0.0376: real time    0.0377
  RMM-DIIS:  cpu time    0.1518: real time    0.1521
    ORTHCH:  cpu time    0.0015: real time    0.0015
       DOS:  cpu time    0.0002: real time    0.0002
    CHARGE:  cpu time    0.0180: real time    0.0180
    MIXING:  cpu time    0.0046: real time    0.0046
    --------------------------------------------
      LOOP:  cpu time    0.3482: real time    0.3492

 eigenvalue-minimisations  :    60
 total energy-change (2. order) :-0.1194669E-05  (-0.1359320E-05)
 number of electron       8.0000001 magnetization 
 augmentation part        0.1908192 magnetization 

 Broyden mixing:
  rms(total) = 0.18728E-03    rms(broyden)= 0.18652E-03
  rms(prec ) = 0.19775E-03
  weight for this iteration     100.00

 eigenvalues of (default mixing * dielectric matrix)
  average eigenvalue GAMMA=   0.7661
  0.7661

 Free energy of the ion-electron system (eV)
  ---------------------------------------------------
  alpha Z        PSCENC =         0.22677786
  Ewald energy   TEWEN  =       136.14900911
  -Hartree energ DENC   =      -291.26572577
  -exchange      EXHF   =         0.00000000
  -V(xc)+E(xc)   XCENC  =        24.95702262
  PAW double counting   =       496.08149029     -496.88561478
  entropy T*S    EENTRO =        -0.00000000
  eigenvalues    EBANDS =       -90.30183907
  atomic energy  EATOM  =       197.04175453
  Solvation  Ediel_sol  =         0.00000000
  ---------------------------------------------------
  free energy    TOTEN  =       -23.99712521 eV

  energy without entropy =      -23.99712521  energy(sigma->0) =      -23.99712521


--------------------------------------------------------------------------------------------------------




--------------------------------------- Iteration     10(   3)  ---------------------------------------


    POTLOK:  cpu time    0.1323: real time    0.1327
    SETDIJ:  cpu time    0.0024: real time    0.0024
    EDDIAG:  cpu time    0.0375: real time    0.0377
  RMM-DIIS:  cpu time    0.1244: real time    0.1245
    ORTHCH:  cpu time    0.0021: real time    0.0021
       DOS:  cpu time    0.0002: real time    0.0002
    CHARGE:  cpu time    0.0182: real time    0.0182
    MIXING:  cpu time    0.0046: real time    0.0047
    --------------------------------------------
      LOOP:  cpu time    0.3216: real time    0.3225

 eigenvalue-minimisations  :    48
 total energy-change (2. order) :-0.9536177E-07  (-0.2708025E-07)
 number of electron       8.0000001 magnetization 
 augmentation part        0.1908208 magnetization 

 Broyden mixing:
  rms(total) = 0.14873E-03    rms(broyden)= 0.14867E-03
  rms(prec ) = 0.15521E-03
  weight for this iteration     100.00

 eigenvalues of (default mixing * dielectric matrix)
  average eigenvalue GAMMA=   1.5561
  1.1977  1.9144

 Free energy of the ion-electron system (eV)
  ---------------------------------------------------
  alpha Z        PSCENC =         0.22677786
  Ewald energy   TEWEN  =       136.14900911
  -Hartree energ DENC   =      -291.26552386
  -exchange      EXHF   =         0.00000000
  -V(xc)+E(xc)   XCENC  =        24.95703311
  PAW double counting   =       496.04361035     -496.84772533
  entropy T*S    EENTRO =        -0.00000000
  eigenvalues    EBANDS =       -90.30206106
  atomic energy  EATOM  =       197.04175453
  Solvation  Ediel_sol  =         0.00000000
  ---------------------------------------------------
  free energy    TOTEN  =       -23.99712530 eV

  energy without entropy =      -23.99712530  energy(sigma->0) =      -23.99712530


--------------------------------------------------------------------------------------------------------




--------------------------------------- Iteration     10(   4)  ---------------------------------------


    POTLOK:  cpu time    0.1342: real time    0.1345
    SETDIJ:  cpu time    0.0020: real time    0.0020
    EDDIAG:  cpu time    0.0380: real time    0.0381
  RMM-DIIS:  cpu time    0.1241: real time    0.1244
    ORTHCH:  cpu time    0.0018: real time    0.0018
       DOS:  cpu time    0.0002: real time    0.0002
    --------------------------------------------
      LOOP:  cpu time    0.3000: real time    0.3009

 eigenvalue-minimisations  :    44
 total energy-change (2. order) :-0.2267747E-06  (-0.7724640E-08)
 number of electron       8.0000001 magnetization 
 augmentation part        0.1908208 magnetization 

 Free energy of the ion-electron system (eV)
  ---------------------------------------------------
  alpha Z        PSCENC =         0.22677786
  Ewald energy   TEWEN  =       136.14900911
  -Hartree energ DENC   =      -291.26590066
  -exchange      EXHF   =         0.00000000
  -V(xc)+E(xc)   XCENC  =        24.95709445
  PAW double counting   =       495.95626139     -496.76037099
  entropy T*S    EENTRO =        -0.00000000
  eigenvalues    EBANDS =       -90.30175121
  atomic energy  EATOM  =       197.04175453
  Solvation  Ediel_sol  =         0.00000000
  ---------------------------------------------------
  free energy    TOTEN  =       -23.99712553 eV

  energy without entropy =      -23.99712553  energy(sigma->0) =      -23.99712553


--------------------------------------------------------------------------------------------------------




 average (electrostatic) potential at core
  the test charge radii are     0.5201  0.6991
  (the norm of the test charge is              1.0000)
       1 -41.6351       2 -41.5138       3 -41.6210       4 -41.7521       5 -57.8522
 
 
 
 E-fermi :  -8.3174     XC(G=0):  -0.6321     alpha+bet : -0.1972


 k-point     1 :       0.2500    0.2500    0.2500
  band No.  band energies     occupation 
      1     -17.0401      2.00000
      2      -9.4314      2.00000
      3      -9.3776      2.00000
      4      -9.3017      2.00000
      5      -0.2902      0.00000
      6       0.5638      0.00000
      7       0.6713      0.00000
      8       0.6902      0.00000

 k-point     2 :      -0.2500    0.2500    0.2500
  band No.  band energies     occupation 
      1     -17.0402      2.00000
      2      -9.4315      2.00000
      3      -9.3776      2.00000
      4      -9.3016      2.00000
      5      -0.2868      0.00000
      6       0.5543      0.00000
      7       0.6588      0.00000
      8       0.6850      0.00000

 k-point     3 :       0.2500   -0.2500    0.2500
  band No.  band energies     occupation 
      1     -17.0402      2.00000
      2      -9.4314      2.00000
      3      -9.3775      2.00000
      4      -9.3017      2.00000
      5      -0.2914      0.00000
      6       0.5642      0.00000
      7       0.6722      0.00000
      8       0.6951      0.00000

 k-point     4 :      -0.2500   -0.2500    0.2500
  band No.  band energies     occupation 
      1     -17.0402      2.00000
      2      -9.4315      2.00000
      3      -9.3777      2.00000
      4      -9.3017      2.00000
      5      -0.2887      0.00000
      6       0.5624      0.00000
      7       0.6683      0.00000
      8       0.6837      0.00000


--------------------------------------------------------------------------------------------------------


 soft charge-density along one line, spin component           1
         0         1         2         3         4         5         6         7         8         9
 total charge-density along one line
 
 pseudopotential strength for first ion, spin component:           1
 -2.342  -4.036  -0.001  -0.001   0.001
 -4.036  -6.869  -0.003  -0.005   0.002
 -0.001  -0.003  -0.336   0.002  -0.001
 -0.001  -0.005   0.002  -0.335  -0.001
  0.001   0.002  -0.001  -0.001  -0.337
 total augmentation occupancy for first ion, spin component:           1
  3.618  -0.648   0.249   0.353  -0.140
 -0.648   0.131  -0.046  -0.065   0.026
  0.249  -0.046   0.024   0.020  -0.008
  0.353  -0.065   0.020   0.039  -0.011
 -0.140   0.026  -0.008  -0.011   0.015


------------------------ aborting loop because EDIFF is reached ----------------------------------------


    CHARGE:  cpu time    0.0181: real time    0.0181
    FORLOC:  cpu time    0.0136: real time    0.0136
    FORNL :  cpu time    0.0208: real time    0.0208
    STRESS:  cpu time    0.1538: real time    0.1541
    FORCOR:  cpu time    0.1400: real time    0.1413
    FORHAR:  cpu time    0.0463: real time    0.0466
    MIXING:  cpu time    0.0050: real time    0.0050
    OFIELD:  cpu time    0.0001: real time    0.0001

  FORCE on cell =-STRESS in cart. coord.  units (eV):
  Direction    XX          YY          ZZ          XY          YZ          ZX
  --------------------------------------------------------------------------------------
  Alpha Z     0.22678     0.22678     0.22678
  Ewald      46.02234    44.85060    45.27603    -0.04396    -0.44307     0.62269
  Hartree    98.74062    96.25630    96.26876     0.01312    -0.07089     0.27609
  E(xc)     -27.44242   -27.44286   -27.44572    -0.00011     0.00096     0.00118
  Local    -203.67486  -199.47202  -199.69027     0.00895     0.34887    -0.78650
  n-local   -16.34118   -16.39346   -16.42502     0.00227     0.01744    -0.00542
  augment     0.11063     0.10479     0.10178     0.00030     0.00200    -0.00110
  Kinetic   102.48529   102.50463   102.65069     0.00262    -0.04429    -0.05940
  Fock        0.00000     0.00000     0.00000     0.00000     0.00000     0.00000
  -------------------------------------------------------------------------------------
  Total       0.12721     0.63475     0.96302    -0.01682    -0.18900     0.04755
  in kB       0.19079     0.95203     1.44438    -0.02522    -0.28346     0.07131
  external pressure =        0.86 kB  Pullay stress =        0.00 kB

  kinetic pressure (ideal gas correction) =      0.02 kB
  total pressure  =      0.88 kB
  Total+kin.     0.195       0.972       1.467      -0.028      -0.288       0.079

 VOLUME and BASIS-vectors are now :
 -----------------------------------------------------------------------------
  energy-cutoff  :      400.00
  volume of cell :     1068.23
      direct lattice vectors                 reciprocal lattice vectors
    10.093862010  0.000000000  0.000000000     0.099070108 -0.000182916 -0.001651874
     0.019008657 10.295369807  0.000000000     0.000000000  0.097131042  0.000806998
     0.171237839 -0.085404317 10.279340382     0.000000000  0.000000000  0.097282507

  length of vectors
    10.093862010 10.295387356 10.281121290     0.099084047  0.097134395  0.097282507


 FORCES acting on ions
    electron-ion (+dipol)            ewald-force                    non-local-force                 convergence-correction
 -----------------------------------------------------------------------------------------------
   -.167E+02 0.297E+02 0.421E+02   0.187E+02 -.332E+02 -.472E+02   -.178E+01 0.317E+01 0.450E+01   0.804E-05 -.497E-05 -.131E-04
   0.530E+02 -.642E+01 0.309E+01   -.587E+02 0.712E+01 -.341E+01   0.552E+01 -.669E+00 0.329E+00   -.775E-05 0.371E-06 -.235E-05
   -.238E+02 -.485E+02 0.132E+01   0.267E+02 0.542E+02 -.149E+01   -.254E+01 -.517E+01 0.143E+00   0.647E-05 0.504E-05 -.561E-05
   -.127E+02 0.256E+02 -.466E+02   0.144E+02 -.289E+02 0.527E+02   -.139E+01 0.281E+01 -.511E+01   -.100E-08 0.942E-06 -.280E-05
   0.752E+00 -.614E+00 0.486E+00   -.102E+01 0.794E+00 -.696E+00   -.289E+00 0.143E+00 -.225E+00   0.319E-04 0.469E-05 -.179E-04
 -----------------------------------------------------------------------------------------------
   0.479E+00 -.282E+00 0.360E+00   -.178E-14 0.355E-14 0.000E+00   -.479E+00 0.282E+00 -.360E+00   0.387E-04 0.607E-05 -.417E-04
 
 
 POSITION                                       TOTAL-FORCE (eV/Angst)
 -----------------------------------------------------------------------------------
      5.49630      4.18354      3.74164         0.233895     -0.374885     -0.552367
      4.08381      4.90402      4.51561        -0.224196      0.025516      0.006605
      5.64041      5.74070      4.55228         0.290198      0.564989     -0.020759
      5.41219      4.27578      5.48628         0.261240     -0.538260      1.000811
      5.16479      4.77322      4.57902        -0.560988      0.322746     -0.434157
 -----------------------------------------------------------------------------------
    total drift:                                0.000150      0.000105      0.000131


--------------------------------------------------------------------------------------------------------



  FREE ENERGIE OF THE ION-ELECTRON SYSTEM (eV)
  ---------------------------------------------------
  free  energy   TOTEN  =       -23.99712553 eV

  energy  without entropy=      -23.99712553  energy(sigma->0) =      -23.99712553
 
 d Force =-0.1122512E-01[-0.125E-01,-0.991E-02]  d Energy =-0.1121558E-01-0.954E-05
 d Force =-0.9281586E+00[-0.932E+00,-0.924E+00]  d Ewald  =-0.9281505E+00-0.807E-05


--------------------------------------------------------------------------------------------------------


    POTLOK:  cpu time    0.1359: real time    0.1376


--------------------------------------------------------------------------------------------------------


           RANDOM_SEED =         172260327               30                0
   IONSTEP:  cpu time    0.0001: real time    0.0001

  ENERGY OF THE ELECTRON-ION-THERMOSTAT SYSTEM (eV)
  ---------------------------------------------------
% ion-electron   TOTEN  =       -23.997126  see above
  kinetic energy EKIN   =         0.010201
  kin. lattice  EKIN_LAT=         0.000000  (temperature   19.73 K)
  nose potential ES     =         0.000000
  nose kinetic   EPS    =         0.000000
  ---------------------------------------------------
  total energy   ETOTAL =       -23.986925 eV

  maximum distance moved by ions :      0.32E-03


 mean value of Nose-termostat <S>:     1.000 mean value of <T> :    44.345
 mean temperature <T/S>/<1/S>  :    44.345

    WAVPRE:  cpu time    0.0517: real time    0.0521
    FEWALD:  cpu time    0.0003: real time    0.0003
    ORTHCH:  cpu time    0.0082: real time    0.0083
 Prediction of Wavefunctions ALPHA= 2.149 BETA=-1.176
    POTLOK:  cpu time    0.1399: real time    0.1428
    EDDIAG:  cpu time    0.0380: real time    0.0382
     LOOP+:  cpu time    2.0503: real time    2.0619
    4ORBIT:  cpu time    0.0000: real time    0.0000

 total amount of memory used by VASP MPI-rank0    56858. kBytes
=======================================================================

   base      :      30000. kBytes
   nonl-proj :       2874. kBytes
   fftplans  :       8582. kBytes
   grid      :      13527. kBytes
   one-center:          6. kBytes
   wavefun   :       1869. kBytes
 
  
  
 General timing and accounting informations for this job:
 ========================================================
  
                  Total CPU time used (sec):       29.042
                            User time (sec):       26.987
                          System time (sec):        2.054
                         Elapsed time (sec):       29.691
  
                   Maximum memory used (kb):      178684.
                   Average memory used (kb):           0.
  
                          Minor page faults:       270529
                          Major page faults:            0
                 Voluntary context switches:          100
