 vasp.5.4.4.18Apr17-6-g9f103f2a35 (build Jul 09 2021 13:05:15) complex          
  
 executed on             LinuxIFC date 2021.11.04  19:03:36
 running on   16 total cores
 distrk:  each k-point on   16 cores,    1 groups
 distr:  one band on NCORES_PER_BAND=   4 cores,    4 groups


--------------------------------------------------------------------------------------------------------


 INCAR:
 POTCAR:    PAW_PBE H 15Jun2001                   
 POTCAR:    PAW_PBE C 08Apr2002                   
 POTCAR:    PAW_PBE H 15Jun2001                   
   VRHFIN =H: ultrasoft test                                                    
   LEXCH  = PE                                                                  
   EATOM  =    12.4884 eV,    0.9179 Ry                                         
                                                                                
   TITEL  = PAW_PBE H 15Jun2001                                                 
   LULTRA =        F    use ultrasoft PP ?                                      
   IUNSCR =        0    unscreen: 0-lin 1-nonlin 2-no                           
   RPACOR =    0.000    partial core radius                                     
   POMASS =    1.000; ZVAL   =    1.000    mass and valenz                      
   RCORE  =    1.100    outmost cutoff radius                                   
   RWIGS  =    0.700; RWIGS  =    0.370    wigner-seitz radius (au A)           
   ENMAX  =  250.000; ENMIN  =  200.000 eV                                      
   RCLOC  =    0.701    cutoff for local pot                                    
   LCOR   =        T    correct aug charges                                     
   LPAW   =        T    paw PP                                                  
   EAUG   =  400.000                                                            
   RMAX   =    1.123    core radius for proj-oper                               
   RAUG   =    1.200    factor for augmentation sphere                          
   RDEP   =    1.112    radius for radial grids                                 
   RDEPT  =    0.926    core radius for aug-charge                              
                                                                                
   Atomic configuration                                                         
    2 entries                                                                   
     n  l   j            E        occ.                                          
     1  0  0.50        -6.4927   1.0000                                         
     2  1  0.50        -3.4015   0.0000                                         
   Description                                                                  
     l       E           TYP  RCUT    TYP  RCUT                                 
     0     -6.4927494     23  1.100                                             
     0      6.8029130     23  1.100                                             
     1     -4.0817478     23  1.100                                             
  local pseudopotential read in
  atomic valenz-charges read in
  non local Contribution for L=           0  read in
    real space projection operators read in
  non local Contribution for L=           0  read in
    real space projection operators read in
  non local Contribution for L=           1  read in
    real space projection operators read in
    PAW grid and wavefunctions read in
 
   number of l-projection  operators is LMAX  =           3
   number of lm-projection operators is LMMAX =           5
 
 POTCAR:    PAW_PBE C 08Apr2002                   
   VRHFIN =C: s2p2                                                              
   LEXCH  = PE                                                                  
   EATOM  =   147.1560 eV,   10.8157 Ry                                         
                                                                                
   TITEL  = PAW_PBE C 08Apr2002                                                 
   LULTRA =        F    use ultrasoft PP ?                                      
   IUNSCR =        1    unscreen: 0-lin 1-nonlin 2-no                           
   RPACOR =    1.200    partial core radius                                     
   POMASS =   12.011; ZVAL   =    4.000    mass and valenz                      
   RCORE  =    1.500    outmost cutoff radius                                   
   RWIGS  =    1.630; RWIGS  =    0.863    wigner-seitz radius (au A)           
   ENMAX  =  400.000; ENMIN  =  300.000 eV                                      
   ICORE  =        2    local potential                                         
   LCOR   =        T    correct aug charges                                     
   LPAW   =        T    paw PP                                                  
   EAUG   =  644.873                                                            
   DEXC   =    0.000                                                            
   RMAX   =    1.529    core radius for proj-oper                               
   RAUG   =    1.300    factor for augmentation sphere                          
   RDEP   =    1.501    radius for radial grids                                 
   RDEPT  =    1.300    core radius for aug-charge                              
                                                                                
   Atomic configuration                                                         
    4 entries                                                                   
     n  l   j            E        occ.                                          
     1  0  0.50      -273.3789   2.0000                                         
     2  0  0.50       -13.7508   2.0000                                         
     2  1  0.50        -5.2854   2.0000                                         
     3  2  1.50        -5.4423   0.0000                                         
   Description                                                                  
     l       E           TYP  RCUT    TYP  RCUT                                 
     0    -13.7508458     23  1.200                                             
     0     -8.2022199     23  1.200                                             
     1     -5.2854383     23  1.500                                             
     1     34.0145650     23  1.500                                             
     2     -5.4423304      7  1.500                                             
  local pseudopotential read in
  partial core-charges read in
  partial kinetic energy density read in
  atomic valenz-charges read in
  non local Contribution for L=           0  read in
    real space projection operators read in
  non local Contribution for L=           0  read in
    real space projection operators read in
  non local Contribution for L=           1  read in
    real space projection operators read in
  non local Contribution for L=           1  read in
    real space projection operators read in
    PAW grid and wavefunctions read in
 
   number of l-projection  operators is LMAX  =           4
   number of lm-projection operators is LMMAX =           8
 
  PAW_PBE H 15Jun2001                   :
 energy of atom  1       EATOM=  -12.4884
 kinetic energy error for atom=    0.0098 (will be added to EATOM!!)
  PAW_PBE C 08Apr2002                   :
 energy of atom  2       EATOM= -147.1560
 kinetic energy error for atom=    0.0288 (will be added to EATOM!!)
 
 
 POSCAR:  H  C                                   
  positions in cartesian coordinates
  No initial velocities read in
 exchange correlation table for  LEXCH =        8
   RHO(1)=    0.500       N(1)  =     2000
   RHO(2)=  100.500       N(2)  =     4000
 


--------------------------------------------------------------------------------------------------------


 ion  position               nearest neighbor table
   1  0.537  0.406  0.361-   5 1.08
   2  0.395  0.480  0.438-   5 1.11
   3  0.552  0.566  0.443-   5 1.09
   4  0.528  0.416  0.539-   5 1.08
   5  0.504  0.467  0.446-   4 1.08   1 1.08   3 1.09   2 1.11
 

IMPORTANT INFORMATION: All symmetrisations will be switched off!
NOSYMM: (Re-)initialisation of all symmetry stuff for point group C_1.

 
 

Automatic generation of k-mesh.
 generate k-points for:    2    2    2
Space group operators:
 irot       det(A)        alpha          n_x          n_y          n_z        tau_x        tau_y        tau_z
    1     1.000000     0.000000     1.000000     0.000000     0.000000     0.000000     0.000000     0.000000
 
 Subroutine IBZKPT returns following result:
 ===========================================
 
 Found      4 irreducible k-points:
 
 Following reciprocal coordinates:
            Coordinates               Weight
  0.250000  0.250000  0.250000      2.000000
 -0.250000  0.250000  0.250000      2.000000
  0.250000 -0.250000  0.250000      2.000000
 -0.250000 -0.250000  0.250000      2.000000
 
 Following cartesian coordinates:
            Coordinates               Weight
  0.024756  0.025366  0.025657      2.000000
 -0.024756  0.024834  0.025652      2.000000
  0.024756 -0.024834  0.025460      2.000000
 -0.024756 -0.025366  0.025455      2.000000
 


--------------------------------------------------------------------------------------------------------




 Dimension of arrays:
   k-points           NKPTS =      4   k-points in BZ     NKDIM =      4   number of bands    NBANDS=      8
   number of dos      NEDOS =    301   number of ions     NIONS =      5
   non local maximal  LDIM  =      4   non local SUM 2l+1 LMDIM =      8
   total plane-waves  NPLWV = 313600
   max r-space proj   IRMAX =      1   max aug-charges    IRDMAX=   3960
   dimension x,y,z NGX =    70 NGY =   70 NGZ =   64
   dimension x,y,z NGXF=   140 NGYF=  140 NGZF=  128
   support grid    NGXF=   140 NGYF=  140 NGZF=  128
   ions per type =               4   1
   NGX,Y,Z   is equivalent  to a cutoff of  11.52, 11.68, 10.88 a.u.
   NGXF,Y,Z  is equivalent  to a cutoff of  23.05, 23.37, 21.75 a.u.

 SYSTEM =  unknown system                          
 POSCAR =   H  C                                   

 Startparameter for this run:
   NWRITE =      2    write-flag & timer
   PREC   = a         normal or accurate (medium, high low for compatibility)
   ISTART =      0    job   : 0-new  1-cont  2-samecut
   ICHARG =      2    charge: 1-file 2-atom 10-const
   ISPIN  =      1    spin polarized calculation?
   LNONCOLLINEAR =      F non collinear calculations
   LSORBIT =      F    spin-orbit coupling
   INIWAV =      1    electr: 0-lowe 1-rand  2-diag
   LASPH  =      F    aspherical Exc in radial PAW
   METAGGA=      F    non-selfconsistent MetaGGA calc.

 Electronic Relaxation 1
   ENCUT  =  400.0 eV  29.40 Ry    5.42 a.u.  16.47 16.24 15.95*2*pi/ulx,y,z
   ENINI  =  400.0     initial cutoff
   ENAUG  =  644.9 eV  augmentation charge cutoff
   NELM   =    120;   NELMIN=  4; NELMDL= -5     # of ELM steps 
   EDIFF  = 0.1E-05   stopping-criterion for ELM
   LREAL  =      F    real-space projection
   NLSPLINE    = F    spline interpolate recip. space projectors
   LCOMPAT=      F    compatible to vasp.4.4
   GGA_COMPAT  = T    GGA compatible to vasp.4.4-vasp.4.6
   LMAXPAW     = -100 max onsite density
   LMAXMIX     =    2 max onsite mixed and CHGCAR
   VOSKOWN=      0    Vosko Wilk Nusair interpolation
   ROPT   =    0.00000   0.00000
 Ionic relaxation
   EDIFFG = 0.1E-04   stopping-criterion for IOM
   NSW    =     10    number of steps for IOM
   NBLOCK =      1;   KBLOCK =     10    inner block; outer block 
   IBRION =      0    ionic relax: 0-MD 1-quasi-New 2-CG
   NFREE  =      0    steps in history (QN), initial steepest desc. (CG)
   ISIF   =      2    stress and relaxation
   IWAVPR =     12    prediction:  0-non 1-charg 2-wave 3-comb
   ISYM   =      0    0-nonsym 1-usesym 2-fastsym
   LCORR  =      T    Harris-Foulkes like correction to forces

   POTIM  = 0.5000    time-step for ionic-motion
   TEIN   =    0.0    initial temperature
   TEBEG  =    0.0;   TEEND  =   0.0 temperature during run
   SMASS  =  -3.00    Nose mass-parameter (am)
   estimated Nose-frequenzy (Omega)   =  0.10E-29 period in steps =****** mass=  -0.233E-26a.u.
   SCALEE = 1.0000    scale energy and forces
   NPACO  =    256;   APACO  = 16.0  distance and # of slots for P.C.
   PSTRESS=    0.0 pullay stress

  Mass of Ions in am
   POMASS =   1.00 12.01
  Ionic Valenz
   ZVAL   =   1.00  4.00
  Atomic Wigner-Seitz radii
   RWIGS  =  -1.00 -1.00
  virtual crystal weights 
   VCA    =   1.00  1.00
   NELECT =       8.0000    total number of electrons
   NUPDOWN=      -1.0000    fix difference up-down

 DOS related values:
   EMIN   =  10.00;   EMAX   =-10.00  energy-range for DOS
   EFERMI =   0.00
   ISMEAR =     0;   SIGMA  =   0.20  broadening in eV -4-tet -1-fermi 0-gaus

 Electronic relaxation 2 (details)
   IALGO  =     68    algorithm
   LDIAG  =      T    sub-space diagonalisation (order eigenvalues)
   LSUBROT=      F    optimize rotation matrix (better conditioning)
   TURBO    =      0    0=normal 1=particle mesh
   IRESTART =      0    0=no restart 2=restart with 2 vectors
   NREBOOT  =      0    no. of reboots
   NMIN     =      0    reboot dimension
   EREF     =   0.00    reference energy to select bands
   IMIX   =      4    mixing-type and parameters
     AMIX     =   0.40;   BMIX     =  1.00
     AMIX_MAG =   1.60;   BMIX_MAG =  1.00
     AMIN     =   0.10
     WC   =   100.;   INIMIX=   1;  MIXPRE=   1;  MAXMIX= -45

 Intra band minimization:
   WEIMIN = 0.0010     energy-eigenvalue tresh-hold
   EBREAK =  0.31E-07  absolut break condition
   DEPER  =   0.30     relativ break condition  

   TIME   =   0.40     timestep for ELM

  volume/ion in A,a.u.               =     196.79      1328.00
  Fermi-wavevector in a.u.,A,eV,Ry     =   0.329191  0.622080  1.474417  0.108367
  Thomas-Fermi vector in A             =   1.223426
 
 Write flags
   LWAVE        =      F    write WAVECAR
   LDOWNSAMPLE  =      F    k-point downsampling of WAVECAR
   LCHARG       =      F    write CHGCAR
   LVTOT        =      F    write LOCPOT, total local potential
   LVHAR        =      F    write LOCPOT, Hartree potential only
   LELF         =      F    write electronic localiz. function (ELF)
   LORBIT       =      0    0 simple, 1 ext, 2 COOP (PROOUT), +10 PAW based schemes


 Dipole corrections
   LMONO  =      F    monopole corrections only (constant potential shift)
   LDIPOL =      F    correct potential (dipole corrections)
   IDIPOL =      0    1-x, 2-y, 3-z, 4-all directions 
   EPSILON=  1.0000000 bulk dielectric constant

 Exchange correlation treatment:
   GGA     =    --    GGA type
   LEXCH   =     8    internal setting for exchange type
   VOSKOWN=      0    Vosko Wilk Nusair interpolation
   LHFCALC =     F    Hartree Fock is set to
   LHFONE  =     F    Hartree Fock one center treatment
   AEXX    =    0.0000 exact exchange contribution

 Linear response parameters
   LEPSILON=     F    determine dielectric tensor
   LRPA    =     F    only Hartree local field effects (RPA)
   LNABLA  =     F    use nabla operator in PAW spheres
   LVEL    =     F    velocity operator in full k-point grid
   LINTERFAST=   F  fast interpolation
   KINTER  =     0    interpolate to denser k-point grid
   CSHIFT  =0.1000    complex shift for real part using Kramers Kronig
   OMEGAMAX=  -1.0    maximum frequency
   DEG_THRESHOLD= 0.2000000E-02 threshold for treating states as degnerate
   RTIME   =   -0.100 relaxation time in fs
  (WPLASMAI=    0.000 imaginary part of plasma frequency in eV, 0.658/RTIME)
   DFIELD  = 0.0000000 0.0000000 0.0000000 field for delta impulse in time
 
 Orbital magnetization related:
   ORBITALMAG=     F  switch on orbital magnetization
   LCHIMAG   =     F  perturbation theory with respect to B field
   DQ        =  0.001000  dq finite difference perturbation B field
   LLRAUG    =     F  two centre corrections for induced B field



--------------------------------------------------------------------------------------------------------


 molecular dynamics for ions
   using a microcanonical ensemble
 charge density and potential will be updated during run
 non-spin polarized calculation
 RMM-DIIS sequential band-by-band and
  variant of blocked Davidson during initial phase
 perform sub-space diagonalisation
    before iterative eigenvector-optimisation
 modified Broyden-mixing scheme, WC =      100.0
 initial mixing is a Kerker type mixing with AMIX =  0.4000 and BMIX =      1.0000
 Hartree-type preconditioning will be used
 using additional bands            4
 reciprocal scheme for non local part
 use partial core corrections
 calculate Harris-corrections to forces 
   (improved forces if not selfconsistent)
 use gradient corrections 
 use of overlap-Matrix (Vanderbilt PP)
 Gauss-broadening in eV      SIGMA  =   0.20


--------------------------------------------------------------------------------------------------------


  energy-cutoff  :      400.00
  volume of cell :      983.95
      direct lattice vectors                 reciprocal lattice vectors
    10.098379740  0.000000000  0.000000000     0.099025787  0.001063067  0.000008918
    -0.106925764  9.960244093  0.000000000     0.000000000  0.100399146  0.000394039
    -0.000468852 -0.038393611  9.782496214     0.000000000  0.000000000  0.102223398

  length of vectors
    10.098379740  9.960818014  9.782571567     0.099031493  0.100399919  0.102223398


 
 k-points in units of 2pi/SCALE and weight: read from INCAR                         
   0.02475645  0.02536555  0.02565659       0.250
  -0.02475645  0.02483402  0.02565213       0.250
   0.02475645 -0.02483402  0.02545957       0.250
  -0.02475645 -0.02536555  0.02545511       0.250
 
 k-points in reciprocal lattice and weights: read from INCAR                         
   0.25000000  0.25000000  0.25000000       0.250
  -0.25000000  0.25000000  0.25000000       0.250
   0.25000000 -0.25000000  0.25000000       0.250
  -0.25000000 -0.25000000  0.25000000       0.250
 
 position of ions in fractional coordinates (direct lattice) 
   0.53747898  0.40640181  0.36095073
   0.39459714  0.48016705  0.43840045
   0.55203634  0.56552187  0.44294127
   0.52819504  0.41638501  0.53921611
   0.50372276  0.46743166  0.44583774
 
 position of ions in cartesian coordinates  (Angst):
   5.38404277  4.03400301  3.53099914
   3.93324397  4.76574927  4.28865073
   5.51399608  5.61572973  4.33307126
   5.28913898  4.12659388  5.27487958
   5.03659424  4.63861607  4.36140602
 


--------------------------------------------------------------------------------------------------------


 k-point  1 :   0.2500 0.2500 0.2500  plane waves:   17874
 k-point  2 :  -0.2500 0.2500 0.2500  plane waves:   17868
 k-point  3 :   0.2500-0.2500 0.2500  plane waves:   17876
 k-point  4 :  -0.2500-0.2500 0.2500  plane waves:   17877

 maximum and minimum number of plane-waves per node :      4487     4450

 maximum number of plane-waves:     17877
 maximum index in each direction: 
   IXMAX=   16   IYMAX=   16   IZMAX=   15
   IXMIN=  -16   IYMIN=  -16   IZMIN=  -16


 parallel 3D FFT for wavefunctions:
    minimum data exchange during FFTs selected (reduces bandwidth)
 parallel 3D FFT for charge:
    minimum data exchange during FFTs selected (reduces bandwidth)


 total amount of memory used by VASP MPI-rank0    53453. kBytes
=======================================================================

   base      :      30000. kBytes
   nonl-proj :       2645. kBytes
   fftplans  :       7851. kBytes
   grid      :      12378. kBytes
   one-center:          6. kBytes
   wavefun   :        573. kBytes
 
     INWAV:  cpu time    0.0000: real time    0.0000
 Broyden mixing: mesh for mixing (old mesh)
   NGX = 33   NGY = 33   NGZ = 31
  (NGX  =140   NGY  =140   NGZ  =128)
  gives a total of  33759 points

 initial charge density was supplied:
 charge density of overlapping atoms calculated
 number of electron       8.0000000 magnetization 
 keeping initial charge density in first step


--------------------------------------------------------------------------------------------------------


 Maximum index for augmentation-charges          165 (set IRDMAX)


--------------------------------------------------------------------------------------------------------


 First call to EWALD:  gamma=   0.178
 Maximum number of real-space cells 3x 3x 3
 Maximum number of reciprocal cells 3x 3x 3

    FEWALD:  cpu time    0.0018: real time    0.0018


--------------------------------------- Iteration      1(   1)  ---------------------------------------


    POTLOK:  cpu time    0.1453: real time    0.1478
    SETDIJ:  cpu time    0.0024: real time    0.0024
     EDDAV:  cpu time    0.2031: real time    0.2049
       DOS:  cpu time    0.0004: real time    0.0004
    --------------------------------------------
      LOOP:  cpu time    0.3512: real time    0.3555

 eigenvalue-minimisations  :    96
 total energy-change (2. order) : 0.1597644E+02  (-0.1953200E+03)
 number of electron       8.0000000 magnetization 
 augmentation part        8.0000000 magnetization 

 Free energy of the ion-electron system (eV)
  ---------------------------------------------------
  alpha Z        PSCENC =         0.24620328
  Ewald energy   TEWEN  =       129.55447212
  -Hartree energ DENC   =      -244.10622668
  -exchange      EXHF   =         0.00000000
  -V(xc)+E(xc)   XCENC  =        22.04515614
  PAW double counting   =       117.05815612     -117.66307307
  entropy T*S    EENTRO =        -0.00001063
  eigenvalues    EBANDS =       -88.19998708
  atomic energy  EATOM  =       197.04175453
  Solvation  Ediel_sol  =         0.00000000
  ---------------------------------------------------
  free energy    TOTEN  =        15.97644474 eV

  energy without entropy =       15.97645537  energy(sigma->0) =       15.97645006


--------------------------------------------------------------------------------------------------------




--------------------------------------- Iteration      1(   2)  ---------------------------------------


     EDDAV:  cpu time    0.1521: real time    0.1529
       DOS:  cpu time    0.0003: real time    0.0003
    --------------------------------------------
      LOOP:  cpu time    0.1524: real time    0.1532

 eigenvalue-minimisations  :    64
 total energy-change (2. order) :-0.3836268E+02  (-0.3836260E+02)
 number of electron       8.0000000 magnetization 
 augmentation part        8.0000000 magnetization 

 Free energy of the ion-electron system (eV)
  ---------------------------------------------------
  alpha Z        PSCENC =         0.24620328
  Ewald energy   TEWEN  =       129.55447212
  -Hartree energ DENC   =      -244.10622668
  -exchange      EXHF   =         0.00000000
  -V(xc)+E(xc)   XCENC  =        22.04515614
  PAW double counting   =       117.05815612     -117.66307307
  entropy T*S    EENTRO =        -0.00000000
  eigenvalues    EBANDS =      -126.56267707
  atomic energy  EATOM  =       197.04175453
  Solvation  Ediel_sol  =         0.00000000
  ---------------------------------------------------
  free energy    TOTEN  =       -22.38623462 eV

  energy without entropy =      -22.38623462  energy(sigma->0) =      -22.38623462


--------------------------------------------------------------------------------------------------------




--------------------------------------- Iteration      1(   3)  ---------------------------------------


     EDDAV:  cpu time    0.1517: real time    0.1525
       DOS:  cpu time    0.0002: real time    0.0002
    --------------------------------------------
      LOOP:  cpu time    0.1519: real time    0.1527

 eigenvalue-minimisations  :    64
 total energy-change (2. order) :-0.5038896E+01  (-0.5038896E+01)
 number of electron       8.0000000 magnetization 
 augmentation part        8.0000000 magnetization 

 Free energy of the ion-electron system (eV)
  ---------------------------------------------------
  alpha Z        PSCENC =         0.24620328
  Ewald energy   TEWEN  =       129.55447212
  -Hartree energ DENC   =      -244.10622668
  -exchange      EXHF   =         0.00000000
  -V(xc)+E(xc)   XCENC  =        22.04515614
  PAW double counting   =       117.05815612     -117.66307307
  entropy T*S    EENTRO =        -0.00000000
  eigenvalues    EBANDS =      -131.60157294
  atomic energy  EATOM  =       197.04175453
  Solvation  Ediel_sol  =         0.00000000
  ---------------------------------------------------
  free energy    TOTEN  =       -27.42513048 eV

  energy without entropy =      -27.42513048  energy(sigma->0) =      -27.42513048


--------------------------------------------------------------------------------------------------------




--------------------------------------- Iteration      1(   4)  ---------------------------------------


     EDDAV:  cpu time    0.2518: real time    0.2533
       DOS:  cpu time    0.0002: real time    0.0002
    --------------------------------------------
      LOOP:  cpu time    0.2520: real time    0.2535

 eigenvalue-minimisations  :   128
 total energy-change (2. order) :-0.2105279E+00  (-0.2105279E+00)
 number of electron       8.0000000 magnetization 
 augmentation part        8.0000000 magnetization 

 Free energy of the ion-electron system (eV)
  ---------------------------------------------------
  alpha Z        PSCENC =         0.24620328
  Ewald energy   TEWEN  =       129.55447212
  -Hartree energ DENC   =      -244.10622668
  -exchange      EXHF   =         0.00000000
  -V(xc)+E(xc)   XCENC  =        22.04515614
  PAW double counting   =       117.05815612     -117.66307307
  entropy T*S    EENTRO =        -0.00000000
  eigenvalues    EBANDS =      -131.81210086
  atomic energy  EATOM  =       197.04175453
  Solvation  Ediel_sol  =         0.00000000
  ---------------------------------------------------
  free energy    TOTEN  =       -27.63565841 eV

  energy without entropy =      -27.63565841  energy(sigma->0) =      -27.63565841


--------------------------------------------------------------------------------------------------------




--------------------------------------- Iteration      1(   5)  ---------------------------------------


     EDDAV:  cpu time    0.2137: real time    0.2149
       DOS:  cpu time    0.0003: real time    0.0003
    CHARGE:  cpu time    0.0209: real time    0.0210
    MIXING:  cpu time    0.0050: real time    0.0052
    --------------------------------------------
      LOOP:  cpu time    0.2399: real time    0.2414

 eigenvalue-minimisations  :   104
 total energy-change (2. order) :-0.7179771E-04  (-0.7179778E-04)
 number of electron       8.0000002 magnetization 
 augmentation part        0.2276981 magnetization 

 Broyden mixing:
  rms(total) = 0.88397E+00    rms(broyden)= 0.88374E+00
  rms(prec ) = 0.12527E+01
  weight for this iteration     100.00

 Free energy of the ion-electron system (eV)
  ---------------------------------------------------
  alpha Z        PSCENC =         0.24620328
  Ewald energy   TEWEN  =       129.55447212
  -Hartree energ DENC   =      -244.10622668
  -exchange      EXHF   =         0.00000000
  -V(xc)+E(xc)   XCENC  =        22.04515614
  PAW double counting   =       117.05815612     -117.66307307
  entropy T*S    EENTRO =        -0.00000000
  eigenvalues    EBANDS =      -131.81217266
  atomic energy  EATOM  =       197.04175453
  Solvation  Ediel_sol  =         0.00000000
  ---------------------------------------------------
  free energy    TOTEN  =       -27.63573021 eV

  energy without entropy =      -27.63573021  energy(sigma->0) =      -27.63573021


--------------------------------------------------------------------------------------------------------




--------------------------------------- Iteration      1(   6)  ---------------------------------------


    POTLOK:  cpu time    0.1426: real time    0.1434
    SETDIJ:  cpu time    0.0019: real time    0.0019
    EDDIAG:  cpu time    0.0426: real time    0.0427
  RMM-DIIS:  cpu time    0.1608: real time    0.1618
    ORTHCH:  cpu time    0.0020: real time    0.0020
       DOS:  cpu time    0.0002: real time    0.0002
    CHARGE:  cpu time    0.0198: real time    0.0198
    MIXING:  cpu time    0.0049: real time    0.0049
    --------------------------------------------
      LOOP:  cpu time    0.3748: real time    0.3768

 eigenvalue-minimisations  :    64
 total energy-change (2. order) : 0.2971147E+01  (-0.5556718E+00)
 number of electron       8.0000002 magnetization 
 augmentation part        0.2006845 magnetization 

 Broyden mixing:
  rms(total) = 0.43461E+00    rms(broyden)= 0.43451E+00
  rms(prec ) = 0.56481E+00
  weight for this iteration     100.00

 eigenvalues of (default mixing * dielectric matrix)
  average eigenvalue GAMMA=   1.3104
  1.3104

 Free energy of the ion-electron system (eV)
  ---------------------------------------------------
  alpha Z        PSCENC =         0.24620328
  Ewald energy   TEWEN  =       129.55447212
  -Hartree energ DENC   =      -264.09608262
  -exchange      EXHF   =         0.00000000
  -V(xc)+E(xc)   XCENC  =        23.25865383
  PAW double counting   =       240.59276197     -241.37619724
  entropy T*S    EENTRO =        -0.00000000
  eigenvalues    EBANDS =      -109.88614926
  atomic energy  EATOM  =       197.04175453
  Solvation  Ediel_sol  =         0.00000000
  ---------------------------------------------------
  free energy    TOTEN  =       -24.66458337 eV

  energy without entropy =      -24.66458337  energy(sigma->0) =      -24.66458337


--------------------------------------------------------------------------------------------------------




--------------------------------------- Iteration      1(   7)  ---------------------------------------


    POTLOK:  cpu time    0.1432: real time    0.1440
    SETDIJ:  cpu time    0.0021: real time    0.0021
    EDDIAG:  cpu time    0.0392: real time    0.0394
  RMM-DIIS:  cpu time    0.1593: real time    0.1601
    ORTHCH:  cpu time    0.0017: real time    0.0017
       DOS:  cpu time    0.0002: real time    0.0002
    CHARGE:  cpu time    0.0187: real time    0.0188
    MIXING:  cpu time    0.0050: real time    0.0051
    --------------------------------------------
      LOOP:  cpu time    0.3694: real time    0.3714

 eigenvalue-minimisations  :    64
 total energy-change (2. order) : 0.5062131E+00  (-0.1287925E+00)
 number of electron       8.0000001 magnetization 
 augmentation part        0.1898912 magnetization 

 Broyden mixing:
  rms(total) = 0.23033E+00    rms(broyden)= 0.23026E+00
  rms(prec ) = 0.27816E+00
  weight for this iteration     100.00

 eigenvalues of (default mixing * dielectric matrix)
  average eigenvalue GAMMA=   1.8449
  1.4660  2.2238

 Free energy of the ion-electron system (eV)
  ---------------------------------------------------
  alpha Z        PSCENC =         0.24620328
  Ewald energy   TEWEN  =       129.55447212
  -Hartree energ DENC   =      -276.03080125
  -exchange      EXHF   =         0.00000000
  -V(xc)+E(xc)   XCENC  =        24.13289461
  PAW double counting   =       371.23540083     -372.06029275
  entropy T*S    EENTRO =        -0.00000000
  eigenvalues    EBANDS =       -98.27800162
  atomic energy  EATOM  =       197.04175453
  Solvation  Ediel_sol  =         0.00000000
  ---------------------------------------------------
  free energy    TOTEN  =       -24.15837024 eV

  energy without entropy =      -24.15837024  energy(sigma->0) =      -24.15837024


--------------------------------------------------------------------------------------------------------




--------------------------------------- Iteration      1(   8)  ---------------------------------------


    POTLOK:  cpu time    0.1439: real time    0.1445
    SETDIJ:  cpu time    0.0023: real time    0.0023
    EDDIAG:  cpu time    0.0395: real time    0.0398
  RMM-DIIS:  cpu time    0.1620: real time    0.1636
    ORTHCH:  cpu time    0.0018: real time    0.0018
       DOS:  cpu time    0.0002: real time    0.0002
    CHARGE:  cpu time    0.0186: real time    0.0187
    MIXING:  cpu time    0.0050: real time    0.0050
    --------------------------------------------
      LOOP:  cpu time    0.3734: real time    0.3760

 eigenvalue-minimisations  :    64
 total energy-change (2. order) : 0.1473694E+00  (-0.1622259E-01)
 number of electron       8.0000001 magnetization 
 augmentation part        0.1884946 magnetization 

 Broyden mixing:
  rms(total) = 0.22511E-01    rms(broyden)= 0.22486E-01
  rms(prec ) = 0.52908E-01
  weight for this iteration     100.00

 eigenvalues of (default mixing * dielectric matrix)
  average eigenvalue GAMMA=   1.5525
  2.2484  0.9931  1.4160

 Free energy of the ion-electron system (eV)
  ---------------------------------------------------
  alpha Z        PSCENC =         0.24620328
  Ewald energy   TEWEN  =       129.55447212
  -Hartree energ DENC   =      -281.43254603
  -exchange      EXHF   =         0.00000000
  -V(xc)+E(xc)   XCENC  =        24.66917061
  PAW double counting   =       483.16887526     -483.96135890
  entropy T*S    EENTRO =        -0.00000000
  eigenvalues    EBANDS =       -93.29757175
  atomic energy  EATOM  =       197.04175453
  Solvation  Ediel_sol  =         0.00000000
  ---------------------------------------------------
  free energy    TOTEN  =       -24.01100088 eV

  energy without entropy =      -24.01100088  energy(sigma->0) =      -24.01100088


--------------------------------------------------------------------------------------------------------




--------------------------------------- Iteration      1(   9)  ---------------------------------------


    POTLOK:  cpu time    0.1426: real time    0.1433
    SETDIJ:  cpu time    0.0019: real time    0.0019
    EDDIAG:  cpu time    0.0395: real time    0.0397
  RMM-DIIS:  cpu time    0.1590: real time    0.1617
    ORTHCH:  cpu time    0.0020: real time    0.0020
       DOS:  cpu time    0.0002: real time    0.0002
    CHARGE:  cpu time    0.0187: real time    0.0189
    MIXING:  cpu time    0.0051: real time    0.0051
    --------------------------------------------
      LOOP:  cpu time    0.3691: real time    0.3729

 eigenvalue-minimisations  :    64
 total energy-change (2. order) : 0.5694709E-02  (-0.1119543E-02)
 number of electron       8.0000001 magnetization 
 augmentation part        0.1879167 magnetization 

 Broyden mixing:
  rms(total) = 0.19730E-01    rms(broyden)= 0.19725E-01
  rms(prec ) = 0.40700E-01
  weight for this iteration     100.00

 eigenvalues of (default mixing * dielectric matrix)
  average eigenvalue GAMMA=   2.1065
  3.1495  2.8913  1.0015  1.3837

 Free energy of the ion-electron system (eV)
  ---------------------------------------------------
  alpha Z        PSCENC =         0.24620328
  Ewald energy   TEWEN  =       129.55447212
  -Hartree energ DENC   =      -282.70119907
  -exchange      EXHF   =         0.00000000
  -V(xc)+E(xc)   XCENC  =        24.73974025
  PAW double counting   =       486.89304559     -487.68817312
  entropy T*S    EENTRO =        -0.00000000
  eigenvalues    EBANDS =       -92.09114976
  atomic energy  EATOM  =       197.04175453
  Solvation  Ediel_sol  =         0.00000000
  ---------------------------------------------------
  free energy    TOTEN  =       -24.00530617 eV

  energy without entropy =      -24.00530617  energy(sigma->0) =      -24.00530617


--------------------------------------------------------------------------------------------------------




--------------------------------------- Iteration      1(  10)  ---------------------------------------


    POTLOK:  cpu time    0.1365: real time    0.1383
    SETDIJ:  cpu time    0.0024: real time    0.0025
    EDDIAG:  cpu time    0.0384: real time    0.0388
  RMM-DIIS:  cpu time    0.1593: real time    0.1614
    ORTHCH:  cpu time    0.0015: real time    0.0015
       DOS:  cpu time    0.0002: real time    0.0002
    CHARGE:  cpu time    0.0185: real time    0.0188
    MIXING:  cpu time    0.0053: real time    0.0053
    --------------------------------------------
      LOOP:  cpu time    0.3620: real time    0.3667

 eigenvalue-minimisations  :    64
 total energy-change (2. order) : 0.6011139E-02  (-0.2449854E-02)
 number of electron       8.0000001 magnetization 
 augmentation part        0.1868614 magnetization 

 Broyden mixing:
  rms(total) = 0.28329E-01    rms(broyden)= 0.28327E-01
  rms(prec ) = 0.35906E-01
  weight for this iteration     100.00

 eigenvalues of (default mixing * dielectric matrix)
  average eigenvalue GAMMA=   1.7800
  3.0760  2.4507  1.2000  1.2000  0.9732

 Free energy of the ion-electron system (eV)
  ---------------------------------------------------
  alpha Z        PSCENC =         0.24620328
  Ewald energy   TEWEN  =       129.55447212
  -Hartree energ DENC   =      -284.91332883
  -exchange      EXHF   =         0.00000000
  -V(xc)+E(xc)   XCENC  =        24.80967841
  PAW double counting   =       470.40747118     -471.20625361
  entropy T*S    EENTRO =        -0.00000000
  eigenvalues    EBANDS =       -89.93929212
  atomic energy  EATOM  =       197.04175453
  Solvation  Ediel_sol  =         0.00000000
  ---------------------------------------------------
  free energy    TOTEN  =       -23.99929503 eV

  energy without entropy =      -23.99929503  energy(sigma->0) =      -23.99929503


--------------------------------------------------------------------------------------------------------




--------------------------------------- Iteration      1(  11)  ---------------------------------------


    POTLOK:  cpu time    0.1355: real time    0.1370
    SETDIJ:  cpu time    0.0026: real time    0.0026
    EDDIAG:  cpu time    0.0376: real time    0.0383
  RMM-DIIS:  cpu time    0.1562: real time    0.1579
    ORTHCH:  cpu time    0.0023: real time    0.0024
       DOS:  cpu time    0.0004: real time    0.0004
    CHARGE:  cpu time    0.0180: real time    0.0183
    MIXING:  cpu time    0.0052: real time    0.0052
    --------------------------------------------
      LOOP:  cpu time    0.3578: real time    0.3622

 eigenvalue-minimisations  :    64
 total energy-change (2. order) :-0.4628835E-03  (-0.6892715E-03)
 number of electron       8.0000001 magnetization 
 augmentation part        0.1871883 magnetization 

 Broyden mixing:
  rms(total) = 0.66026E-02    rms(broyden)= 0.65991E-02
  rms(prec ) = 0.12931E-01
  weight for this iteration     100.00

 eigenvalues of (default mixing * dielectric matrix)
  average eigenvalue GAMMA=   2.2835
  4.8297  3.1280  2.4318  1.3032  1.0043  1.0043

 Free energy of the ion-electron system (eV)
  ---------------------------------------------------
  alpha Z        PSCENC =         0.24620328
  Ewald energy   TEWEN  =       129.55447212
  -Hartree energ DENC   =      -284.81062074
  -exchange      EXHF   =         0.00000000
  -V(xc)+E(xc)   XCENC  =        24.82343020
  PAW double counting   =       479.55991650     -480.35154759
  entropy T*S    EENTRO =        -0.00000000
  eigenvalues    EBANDS =       -90.06336622
  atomic energy  EATOM  =       197.04175453
  Solvation  Ediel_sol  =         0.00000000
  ---------------------------------------------------
  free energy    TOTEN  =       -23.99975791 eV

  energy without entropy =      -23.99975791  energy(sigma->0) =      -23.99975791


--------------------------------------------------------------------------------------------------------




--------------------------------------- Iteration      1(  12)  ---------------------------------------


    POTLOK:  cpu time    0.1285: real time    0.1305
    SETDIJ:  cpu time    0.0019: real time    0.0019
    EDDIAG:  cpu time    0.0395: real time    0.0400
  RMM-DIIS:  cpu time    0.1597: real time    0.1625
    ORTHCH:  cpu time    0.0016: real time    0.0016
       DOS:  cpu time    0.0002: real time    0.0002
    CHARGE:  cpu time    0.0176: real time    0.0178
    MIXING:  cpu time    0.0059: real time    0.0060
    --------------------------------------------
      LOOP:  cpu time    0.3549: real time    0.3604

 eigenvalue-minimisations  :    64
 total energy-change (2. order) :-0.1001344E-01  (-0.4545359E-03)
 number of electron       8.0000001 magnetization 
 augmentation part        0.1874675 magnetization 

 Broyden mixing:
  rms(total) = 0.13335E-01    rms(broyden)= 0.13333E-01
  rms(prec ) = 0.17343E-01
  weight for this iteration     100.00

 eigenvalues of (default mixing * dielectric matrix)
  average eigenvalue GAMMA=   2.0209
  4.8248  2.9443  2.4387  1.2571  0.9944  0.9944  0.6929

 Free energy of the ion-electron system (eV)
  ---------------------------------------------------
  alpha Z        PSCENC =         0.24620328
  Ewald energy   TEWEN  =       129.55447212
  -Hartree energ DENC   =      -284.98495896
  -exchange      EXHF   =         0.00000000
  -V(xc)+E(xc)   XCENC  =        24.81536630
  PAW double counting   =       477.13285905     -477.92257338
  entropy T*S    EENTRO =        -0.00000000
  eigenvalues    EBANDS =       -89.89289429
  atomic energy  EATOM  =       197.04175453
  Solvation  Ediel_sol  =         0.00000000
  ---------------------------------------------------
  free energy    TOTEN  =       -24.00977135 eV

  energy without entropy =      -24.00977135  energy(sigma->0) =      -24.00977135


--------------------------------------------------------------------------------------------------------




--------------------------------------- Iteration      1(  13)  ---------------------------------------


    POTLOK:  cpu time    0.1271: real time    0.1291
    SETDIJ:  cpu time    0.0019: real time    0.0020
    EDDIAG:  cpu time    0.0382: real time    0.0386
  RMM-DIIS:  cpu time    0.1609: real time    0.1631
    ORTHCH:  cpu time    0.0017: real time    0.0017
       DOS:  cpu time    0.0002: real time    0.0002
    CHARGE:  cpu time    0.0175: real time    0.0177
    MIXING:  cpu time    0.0060: real time    0.0061
    --------------------------------------------
      LOOP:  cpu time    0.3535: real time    0.3584

 eigenvalue-minimisations  :    64
 total energy-change (2. order) :-0.3346016E-03  (-0.8247687E-04)
 number of electron       8.0000001 magnetization 
 augmentation part        0.1872517 magnetization 

 Broyden mixing:
  rms(total) = 0.63404E-02    rms(broyden)= 0.63403E-02
  rms(prec ) = 0.83096E-02
  weight for this iteration     100.00

 eigenvalues of (default mixing * dielectric matrix)
  average eigenvalue GAMMA=   2.3997
  6.0510  3.9677  2.5392  2.3237  1.2226  1.2226  0.9978  0.8731

 Free energy of the ion-electron system (eV)
  ---------------------------------------------------
  alpha Z        PSCENC =         0.24620328
  Ewald energy   TEWEN  =       129.55447212
  -Hartree energ DENC   =      -285.17298889
  -exchange      EXHF   =         0.00000000
  -V(xc)+E(xc)   XCENC  =        24.82116826
  PAW double counting   =       476.98052782     -477.77259965
  entropy T*S    EENTRO =        -0.00000000
  eigenvalues    EBANDS =       -89.70864343
  atomic energy  EATOM  =       197.04175453
  Solvation  Ediel_sol  =         0.00000000
  ---------------------------------------------------
  free energy    TOTEN  =       -24.01010595 eV

  energy without entropy =      -24.01010595  energy(sigma->0) =      -24.01010595


--------------------------------------------------------------------------------------------------------




--------------------------------------- Iteration      1(  14)  ---------------------------------------


    POTLOK:  cpu time    0.1264: real time    0.1285
    SETDIJ:  cpu time    0.0020: real time    0.0020
    EDDIAG:  cpu time    0.0380: real time    0.0384
  RMM-DIIS:  cpu time    0.1617: real time    0.1637
    ORTHCH:  cpu time    0.0015: real time    0.0015
       DOS:  cpu time    0.0002: real time    0.0002
    CHARGE:  cpu time    0.0177: real time    0.0179
    MIXING:  cpu time    0.0060: real time    0.0060
    --------------------------------------------
      LOOP:  cpu time    0.3535: real time    0.3583

 eigenvalue-minimisations  :    64
 total energy-change (2. order) :-0.2838303E-02  (-0.2181678E-03)
 number of electron       8.0000001 magnetization 
 augmentation part        0.1870240 magnetization 

 Broyden mixing:
  rms(total) = 0.47017E-02    rms(broyden)= 0.46994E-02
  rms(prec ) = 0.61154E-02
  weight for this iteration     100.00

 eigenvalues of (default mixing * dielectric matrix)
  average eigenvalue GAMMA=   2.3257
  6.5025  4.1734  2.4552  2.4552  1.1893  1.1893  0.9622  0.9622  1.0424

 Free energy of the ion-electron system (eV)
  ---------------------------------------------------
  alpha Z        PSCENC =         0.24620328
  Ewald energy   TEWEN  =       129.55447212
  -Hartree energ DENC   =      -285.23972456
  -exchange      EXHF   =         0.00000000
  -V(xc)+E(xc)   XCENC  =        24.81363906
  PAW double counting   =       475.95736852     -476.75175656
  entropy T*S    EENTRO =        -0.00000000
  eigenvalues    EBANDS =       -89.63490066
  atomic energy  EATOM  =       197.04175453
  Solvation  Ediel_sol  =         0.00000000
  ---------------------------------------------------
  free energy    TOTEN  =       -24.01294425 eV

  energy without entropy =      -24.01294425  energy(sigma->0) =      -24.01294425


--------------------------------------------------------------------------------------------------------




--------------------------------------- Iteration      1(  15)  ---------------------------------------


    POTLOK:  cpu time    0.1252: real time    0.1267
    SETDIJ:  cpu time    0.0019: real time    0.0019
    EDDIAG:  cpu time    0.0382: real time    0.0387
  RMM-DIIS:  cpu time    0.1585: real time    0.1615
    ORTHCH:  cpu time    0.0017: real time    0.0017
       DOS:  cpu time    0.0002: real time    0.0002
    CHARGE:  cpu time    0.0164: real time    0.0177
    MIXING:  cpu time    0.0066: real time    0.0066
    --------------------------------------------
      LOOP:  cpu time    0.3486: real time    0.3549

 eigenvalue-minimisations  :    64
 total energy-change (2. order) :-0.1982824E-03  (-0.1517514E-04)
 number of electron       8.0000001 magnetization 
 augmentation part        0.1870372 magnetization 

 Broyden mixing:
  rms(total) = 0.17195E-02    rms(broyden)= 0.17194E-02
  rms(prec ) = 0.22048E-02
  weight for this iteration     100.00

 eigenvalues of (default mixing * dielectric matrix)
  average eigenvalue GAMMA=   2.5634
  7.5402  4.9441  3.0824  2.5341  2.0672  1.2923  1.2923  1.0012  0.9879  0.8920

 Free energy of the ion-electron system (eV)
  ---------------------------------------------------
  alpha Z        PSCENC =         0.24620328
  Ewald energy   TEWEN  =       129.55447212
  -Hartree energ DENC   =      -285.15373400
  -exchange      EXHF   =         0.00000000
  -V(xc)+E(xc)   XCENC  =        24.80993445
  PAW double counting   =       476.08800531     -476.88117098
  entropy T*S    EENTRO =        -0.00000000
  eigenvalues    EBANDS =       -89.71860725
  atomic energy  EATOM  =       197.04175453
  Solvation  Ediel_sol  =         0.00000000
  ---------------------------------------------------
  free energy    TOTEN  =       -24.01314254 eV

  energy without entropy =      -24.01314253  energy(sigma->0) =      -24.01314253


--------------------------------------------------------------------------------------------------------




--------------------------------------- Iteration      1(  16)  ---------------------------------------


    POTLOK:  cpu time    0.1265: real time    0.1313
    SETDIJ:  cpu time    0.0020: real time    0.0021
    EDDIAG:  cpu time    0.0374: real time    0.0383
  RMM-DIIS:  cpu time    0.1579: real time    0.1606
    ORTHCH:  cpu time    0.0017: real time    0.0017
       DOS:  cpu time    0.0002: real time    0.0002
    CHARGE:  cpu time    0.0171: real time    0.0176
    MIXING:  cpu time    0.0066: real time    0.0066
    --------------------------------------------
      LOOP:  cpu time    0.3494: real time    0.3584

 eigenvalue-minimisations  :    64
 total energy-change (2. order) :-0.2182728E-03  (-0.1990324E-04)
 number of electron       8.0000001 magnetization 
 augmentation part        0.1871268 magnetization 

 Broyden mixing:
  rms(total) = 0.15751E-02    rms(broyden)= 0.15744E-02
  rms(prec ) = 0.20985E-02
  weight for this iteration     100.00

 eigenvalues of (default mixing * dielectric matrix)
  average eigenvalue GAMMA=   2.4635
  7.6670  4.8128  3.4724  2.3897  2.2991  1.2619  1.2619  0.9161  0.9584  1.0295
  1.0295

 Free energy of the ion-electron system (eV)
  ---------------------------------------------------
  alpha Z        PSCENC =         0.24620328
  Ewald energy   TEWEN  =       129.55447212
  -Hartree energ DENC   =      -285.12609790
  -exchange      EXHF   =         0.00000000
  -V(xc)+E(xc)   XCENC  =        24.80981028
  PAW double counting   =       476.23267603     -477.02508751
  entropy T*S    EENTRO =        -0.00000000
  eigenvalues    EBANDS =       -89.74709164
  atomic energy  EATOM  =       197.04175453
  Solvation  Ediel_sol  =         0.00000000
  ---------------------------------------------------
  free energy    TOTEN  =       -24.01336081 eV

  energy without entropy =      -24.01336081  energy(sigma->0) =      -24.01336081


--------------------------------------------------------------------------------------------------------




--------------------------------------- Iteration      1(  17)  ---------------------------------------


    POTLOK:  cpu time    0.1252: real time    0.1299
    SETDIJ:  cpu time    0.0019: real time    0.0020
    EDDIAG:  cpu time    0.0380: real time    0.0385
  RMM-DIIS:  cpu time    0.1590: real time    0.1644
    ORTHCH:  cpu time    0.0016: real time    0.0016
       DOS:  cpu time    0.0002: real time    0.0002
    CHARGE:  cpu time    0.0172: real time    0.0173
    MIXING:  cpu time    0.0068: real time    0.0069
    --------------------------------------------
      LOOP:  cpu time    0.3500: real time    0.3608

 eigenvalue-minimisations  :    64
 total energy-change (2. order) :-0.1221433E-04  (-0.3473565E-05)
 number of electron       8.0000001 magnetization 
 augmentation part        0.1870884 magnetization 

 Broyden mixing:
  rms(total) = 0.33993E-03    rms(broyden)= 0.33990E-03
  rms(prec ) = 0.41458E-03
  weight for this iteration     100.00

 eigenvalues of (default mixing * dielectric matrix)
  average eigenvalue GAMMA=   2.5735
  8.3249  5.1588  3.8685  2.6711  2.4392  1.9308  1.3201  1.3201  0.9883  0.9883
  0.9925  0.8796

 Free energy of the ion-electron system (eV)
  ---------------------------------------------------
  alpha Z        PSCENC =         0.24620328
  Ewald energy   TEWEN  =       129.55447212
  -Hartree energ DENC   =      -285.17501236
  -exchange      EXHF   =         0.00000000
  -V(xc)+E(xc)   XCENC  =        24.81214721
  PAW double counting   =       476.25142524     -477.04429523
  entropy T*S    EENTRO =        -0.00000000
  eigenvalues    EBANDS =       -89.70006782
  atomic energy  EATOM  =       197.04175453
  Solvation  Ediel_sol  =         0.00000000
  ---------------------------------------------------
  free energy    TOTEN  =       -24.01337302 eV

  energy without entropy =      -24.01337302  energy(sigma->0) =      -24.01337302


--------------------------------------------------------------------------------------------------------




--------------------------------------- Iteration      1(  18)  ---------------------------------------


    POTLOK:  cpu time    0.1319: real time    0.1335
    SETDIJ:  cpu time    0.0021: real time    0.0021
    EDDIAG:  cpu time    0.0378: real time    0.0384
  RMM-DIIS:  cpu time    0.1399: real time    0.1427
    ORTHCH:  cpu time    0.0015: real time    0.0015
       DOS:  cpu time    0.0002: real time    0.0002
    CHARGE:  cpu time    0.0172: real time    0.0173
    MIXING:  cpu time    0.0073: real time    0.0074
    --------------------------------------------
      LOOP:  cpu time    0.3380: real time    0.3430

 eigenvalue-minimisations  :    60
 total energy-change (2. order) :-0.1783219E-04  (-0.5428642E-06)
 number of electron       8.0000001 magnetization 
 augmentation part        0.1870722 magnetization 

 Broyden mixing:
  rms(total) = 0.14024E-03    rms(broyden)= 0.13995E-03
  rms(prec ) = 0.20051E-03
  weight for this iteration     100.00

 eigenvalues of (default mixing * dielectric matrix)
  average eigenvalue GAMMA=   2.4852
  8.3821  5.2323  3.9456  2.6572  2.5168  1.9425  1.3095  1.3095  0.8938  0.9939
  0.9939  1.0651  1.0651

 Free energy of the ion-electron system (eV)
  ---------------------------------------------------
  alpha Z        PSCENC =         0.24620328
  Ewald energy   TEWEN  =       129.55447212
  -Hartree energ DENC   =      -285.17401552
  -exchange      EXHF   =         0.00000000
  -V(xc)+E(xc)   XCENC  =        24.81178647
  PAW double counting   =       476.12262334     -476.91557550
  entropy T*S    EENTRO =        -0.00000000
  eigenvalues    EBANDS =       -89.70063958
  atomic energy  EATOM  =       197.04175453
  Solvation  Ediel_sol  =         0.00000000
  ---------------------------------------------------
  free energy    TOTEN  =       -24.01339085 eV

  energy without entropy =      -24.01339085  energy(sigma->0) =      -24.01339085


--------------------------------------------------------------------------------------------------------




--------------------------------------- Iteration      1(  19)  ---------------------------------------


    POTLOK:  cpu time    0.1331: real time    0.1341
    SETDIJ:  cpu time    0.0020: real time    0.0020
    EDDIAG:  cpu time    0.0387: real time    0.0391
  RMM-DIIS:  cpu time    0.1278: real time    0.1298
    ORTHCH:  cpu time    0.0015: real time    0.0015
       DOS:  cpu time    0.0002: real time    0.0002
    CHARGE:  cpu time    0.0172: real time    0.0173
    MIXING:  cpu time    0.0071: real time    0.0072
    --------------------------------------------
      LOOP:  cpu time    0.3276: real time    0.3312

 eigenvalue-minimisations  :    48
 total energy-change (2. order) :-0.1837009E-05  (-0.2494283E-07)
 number of electron       8.0000001 magnetization 
 augmentation part        0.1870724 magnetization 

 Broyden mixing:
  rms(total) = 0.11135E-03    rms(broyden)= 0.11132E-03
  rms(prec ) = 0.15437E-03
  weight for this iteration     100.00

 eigenvalues of (default mixing * dielectric matrix)
  average eigenvalue GAMMA=   2.5606
  8.4388  5.5359  3.8176  3.8176  2.4336  2.4336  1.8629  1.3319  1.3319  1.0105
  1.0105  1.0149  0.9045  0.9045

 Free energy of the ion-electron system (eV)
  ---------------------------------------------------
  alpha Z        PSCENC =         0.24620328
  Ewald energy   TEWEN  =       129.55447212
  -Hartree energ DENC   =      -285.17107602
  -exchange      EXHF   =         0.00000000
  -V(xc)+E(xc)   XCENC  =        24.81161303
  PAW double counting   =       476.11806048     -476.91098621
  entropy T*S    EENTRO =        -0.00000000
  eigenvalues    EBANDS =       -89.70343390
  atomic energy  EATOM  =       197.04175453
  Solvation  Ediel_sol  =         0.00000000
  ---------------------------------------------------
  free energy    TOTEN  =       -24.01339269 eV

  energy without entropy =      -24.01339269  energy(sigma->0) =      -24.01339269


--------------------------------------------------------------------------------------------------------




--------------------------------------- Iteration      1(  20)  ---------------------------------------


    POTLOK:  cpu time    0.1344: real time    0.1360
    SETDIJ:  cpu time    0.0021: real time    0.0021
    EDDIAG:  cpu time    0.0374: real time    0.0379
  RMM-DIIS:  cpu time    0.1280: real time    0.1294
    ORTHCH:  cpu time    0.0018: real time    0.0018
       DOS:  cpu time    0.0002: real time    0.0002
    CHARGE:  cpu time    0.0170: real time    0.0171
    MIXING:  cpu time    0.0075: real time    0.0075
    --------------------------------------------
      LOOP:  cpu time    0.3284: real time    0.3321

 eigenvalue-minimisations  :    48
 total energy-change (2. order) :-0.1849754E-05  (-0.2943988E-07)
 number of electron       8.0000001 magnetization 
 augmentation part        0.1870758 magnetization 

 Broyden mixing:
  rms(total) = 0.36237E-04    rms(broyden)= 0.36231E-04
  rms(prec ) = 0.44592E-04
  weight for this iteration     100.00

 eigenvalues of (default mixing * dielectric matrix)
  average eigenvalue GAMMA=   2.4657
  8.4461  5.5462  3.9522  3.6053  2.4614  2.4614  1.8516  1.3370  1.3370  1.0805
  1.0805  1.0370  0.9557  0.9557  0.8772

 Free energy of the ion-electron system (eV)
  ---------------------------------------------------
  alpha Z        PSCENC =         0.24620328
  Ewald energy   TEWEN  =       129.55447212
  -Hartree energ DENC   =      -285.16625071
  -exchange      EXHF   =         0.00000000
  -V(xc)+E(xc)   XCENC  =        24.81133141
  PAW double counting   =       476.11742032     -476.91029968
  entropy T*S    EENTRO =        -0.00000000
  eigenvalues    EBANDS =       -89.70802582
  atomic energy  EATOM  =       197.04175453
  Solvation  Ediel_sol  =         0.00000000
  ---------------------------------------------------
  free energy    TOTEN  =       -24.01339454 eV

  energy without entropy =      -24.01339454  energy(sigma->0) =      -24.01339454


--------------------------------------------------------------------------------------------------------




--------------------------------------- Iteration      1(  21)  ---------------------------------------


    POTLOK:  cpu time    0.1346: real time    0.1357
    SETDIJ:  cpu time    0.0020: real time    0.0020
    EDDIAG:  cpu time    0.0380: real time    0.0385
  RMM-DIIS:  cpu time    0.1160: real time    0.1171
    ORTHCH:  cpu time    0.0019: real time    0.0019
       DOS:  cpu time    0.0002: real time    0.0002
    --------------------------------------------
      LOOP:  cpu time    0.2927: real time    0.2954

 eigenvalue-minimisations  :    44
 total energy-change (2. order) :-0.2850632E-06  (-0.4049351E-08)
 number of electron       8.0000001 magnetization 
 augmentation part        0.1870758 magnetization 

 Free energy of the ion-electron system (eV)
  ---------------------------------------------------
  alpha Z        PSCENC =         0.24620328
  Ewald energy   TEWEN  =       129.55447212
  -Hartree energ DENC   =      -285.16720668
  -exchange      EXHF   =         0.00000000
  -V(xc)+E(xc)   XCENC  =        24.81140828
  PAW double counting   =       476.12455397     -476.91743278
  entropy T*S    EENTRO =        -0.00000000
  eigenvalues    EBANDS =       -89.70714755
  atomic energy  EATOM  =       197.04175453
  Solvation  Ediel_sol  =         0.00000000
  ---------------------------------------------------
  free energy    TOTEN  =       -24.01339483 eV

  energy without entropy =      -24.01339483  energy(sigma->0) =      -24.01339483


--------------------------------------------------------------------------------------------------------




 average (electrostatic) potential at core
  the test charge radii are     0.5201  0.6991
  (the norm of the test charge is              1.0000)
       1 -41.5723       2 -41.3607       3 -41.5591       4 -41.6400       5 -57.9214
 
 
 
 E-fermi :  -8.2525     XC(G=0):  -0.7062     alpha+bet : -0.2141


 k-point     1 :       0.2500    0.2500    0.2500
  band No.  band energies     occupation 
      1     -16.9302      2.00000
      2      -9.4019      2.00000
      3      -9.2922      2.00000
      4      -9.2293      2.00000
      5      -0.3034      0.00000
      6       0.5756      0.00000
      7       0.6716      0.00000
      8       0.7105      0.00000

 k-point     2 :      -0.2500    0.2500    0.2500
  band No.  band energies     occupation 
      1     -16.9302      2.00000
      2      -9.4019      2.00000
      3      -9.2921      2.00000
      4      -9.2294      2.00000
      5      -0.3056      0.00000
      6       0.5765      0.00000
      7       0.6811      0.00000
      8       0.7106      0.00000

 k-point     3 :       0.2500   -0.2500    0.2500
  band No.  band energies     occupation 
      1     -16.9302      2.00000
      2      -9.4019      2.00000
      3      -9.2922      2.00000
      4      -9.2293      2.00000
      5      -0.3064      0.00000
      6       0.5771      0.00000
      7       0.6843      0.00000
      8       0.7137      0.00000

 k-point     4 :      -0.2500   -0.2500    0.2500
  band No.  band energies     occupation 
      1     -16.9302      2.00000
      2      -9.4019      2.00000
      3      -9.2921      2.00000
      4      -9.2294      2.00000
      5      -0.3043      0.00000
      6       0.5770      0.00000
      7       0.6723      0.00000
      8       0.7136      0.00000


--------------------------------------------------------------------------------------------------------


 soft charge-density along one line, spin component           1
         0         1         2         3         4         5         6         7         8         9
 total charge-density along one line
 
 pseudopotential strength for first ion, spin component:           1
 -2.341  -4.035  -0.001  -0.001   0.001
 -4.035  -6.867  -0.003  -0.004   0.002
 -0.001  -0.003  -0.337   0.002  -0.001
 -0.001  -0.004   0.002  -0.335  -0.001
  0.001   0.002  -0.001  -0.001  -0.338
 total augmentation occupancy for first ion, spin component:           1
  3.592  -0.645   0.249   0.340  -0.143
 -0.645   0.130  -0.046  -0.063   0.026
  0.249  -0.046   0.024   0.020  -0.008
  0.340  -0.063   0.020   0.037  -0.011
 -0.143   0.026  -0.008  -0.011   0.014


------------------------ aborting loop because EDIFF is reached ----------------------------------------


    CHARGE:  cpu time    0.0179: real time    0.0181
    FORLOC:  cpu time    0.0147: real time    0.0148
    FORNL :  cpu time    0.0218: real time    0.0219
    STRESS:  cpu time    0.1645: real time    0.1654
    FORCOR:  cpu time    0.1350: real time    0.1391
    FORHAR:  cpu time    0.0433: real time    0.0436
    MIXING:  cpu time    0.0064: real time    0.0064
    OFIELD:  cpu time    0.0001: real time    0.0001

  FORCE on cell =-STRESS in cart. coord.  units (eV):
  Direction    XX          YY          ZZ          XY          YZ          ZX
  --------------------------------------------------------------------------------------
  Alpha Z     0.24620     0.24620     0.24620
  Ewald      40.33764    44.67651    44.54032    -0.71273    -0.56938     0.37453
  Hartree    93.43860    95.16292    96.56637    -0.35294    -0.12329     0.10453
  E(xc)     -27.28134   -27.28050   -27.29630    -0.00356    -0.00125     0.00210
  Local    -192.99399  -198.09244  -199.67360     0.99016     0.54417    -0.41371
  n-local   -15.97572   -16.07562   -16.11549    -0.00090     0.00617     0.00382
  augment     0.11842     0.10908     0.11015     0.00048     0.00134    -0.00045
  Kinetic   101.32476   101.31885   102.14526     0.15970     0.07153    -0.11060
  Fock        0.00000     0.00000     0.00000     0.00000     0.00000     0.00000
  -------------------------------------------------------------------------------------
  Total      -0.78543     0.06499     0.52291     0.08021    -0.07071    -0.03979
  in kB      -1.27893     0.10583     0.85147     0.13060    -0.11514    -0.06479
  external pressure =       -0.11 kB  Pullay stress =        0.00 kB

  kinetic pressure (ideal gas correction) =      0.00 kB
  total pressure  =     -0.11 kB
  Total+kin.    -1.279       0.106       0.851       0.131      -0.115      -0.065

 VOLUME and BASIS-vectors are now :
 -----------------------------------------------------------------------------
  energy-cutoff  :      400.00
  volume of cell :      983.95
      direct lattice vectors                 reciprocal lattice vectors
    10.098379740  0.000000000  0.000000000     0.099025787  0.001063067  0.000008918
    -0.106925764  9.960244093  0.000000000     0.000000000  0.100399146  0.000394039
    -0.000468852 -0.038393611  9.782496214     0.000000000  0.000000000  0.102223398

  length of vectors
    10.098379740  9.960818014  9.782571567     0.099031493  0.100399919  0.102223398


 FORCES acting on ions
    electron-ion (+dipol)            ewald-force                    non-local-force                 convergence-correction
 -----------------------------------------------------------------------------------------------
   -.172E+02 0.298E+02 0.410E+02   0.191E+02 -.332E+02 -.457E+02   -.182E+01 0.318E+01 0.433E+01   0.131E-04 -.191E-04 -.156E-04
   0.518E+02 -.603E+01 0.339E+01   -.565E+02 0.656E+01 -.368E+01   0.521E+01 -.605E+00 0.350E+00   -.359E-04 -.216E-05 -.243E-05
   -.234E+02 -.479E+02 0.136E+01   0.260E+02 0.532E+02 -.151E+01   -.246E+01 -.506E+01 0.150E+00   0.224E-04 0.277E-04 -.250E-05
   -.126E+02 0.255E+02 -.456E+02   0.141E+02 -.285E+02 0.512E+02   -.137E+01 0.277E+01 -.490E+01   0.108E-04 -.197E-04 0.185E-04
   0.215E+01 -.165E+01 0.157E+00   -.263E+01 0.189E+01 -.274E+00   -.352E+00 -.173E-01 -.175E+00   0.437E-05 -.367E-04 -.173E-04
 -----------------------------------------------------------------------------------------------
   0.794E+00 -.271E+00 0.239E+00   -.533E-14 0.355E-14 -.711E-14   -.795E+00 0.271E+00 -.239E+00   0.147E-04 -.500E-04 -.194E-04
 
 
 POSITION                                       TOTAL-FORCE (eV/Angst)
 -----------------------------------------------------------------------------------
      5.38404      4.03400      3.53100         0.108547     -0.170565     -0.405889
      3.93324      4.76575      4.28865         0.483811     -0.072802      0.056370
      5.51400      5.61573      4.33307         0.138935      0.250209      0.003038
      5.28914      4.12659      5.27488         0.098051     -0.231957      0.639707
      5.03659      4.63862      4.36141        -0.829888      0.224737     -0.293054
 -----------------------------------------------------------------------------------
    total drift:                               -0.000544     -0.000378      0.000171


--------------------------------------------------------------------------------------------------------



  FREE ENERGIE OF THE ION-ELECTRON SYSTEM (eV)
  ---------------------------------------------------
  free  energy   TOTEN  =       -24.01339483 eV

  energy  without entropy=      -24.01339483  energy(sigma->0) =      -24.01339483
 


--------------------------------------------------------------------------------------------------------


    POTLOK:  cpu time    0.1357: real time    0.1383


--------------------------------------------------------------------------------------------------------


           RANDOM_SEED =         172296231                0                0
           RANDOM_SEED =         172296231               30                0
   IONSTEP:  cpu time    0.0030: real time    0.0030

  ENERGY OF THE ELECTRON-ION-THERMOSTAT SYSTEM (eV)
  ---------------------------------------------------
% ion-electron   TOTEN  =       -24.013395  see above
  kinetic energy EKIN   =         0.000326
  kin. lattice  EKIN_LAT=         0.000000  (temperature    0.63 K)
  nose potential ES     =         0.000000
  nose kinetic   EPS    =         0.000000
  ---------------------------------------------------
  total energy   ETOTAL =       -24.013069 eV

  maximum distance moved by ions :      0.17E-03

    WAVPRE:  cpu time    0.0409: real time    0.0414
    FEWALD:  cpu time    0.0007: real time    0.0007
    ORTHCH:  cpu time    0.0091: real time    0.0091
     LOOP+:  cpu time    7.3477: real time    7.4415


--------------------------------------- Iteration      2(   1)  ---------------------------------------


    POTLOK:  cpu time    0.1360: real time    0.1377
    SETDIJ:  cpu time    0.0016: real time    0.0024
     EDDAV:  cpu time    0.1739: real time    0.1753
       DOS:  cpu time    0.0002: real time    0.0002
    CHARGE:  cpu time    0.0173: real time    0.0175
    MIXING:  cpu time    0.0065: real time    0.0065
    --------------------------------------------
      LOOP:  cpu time    0.3355: real time    0.3396

 eigenvalue-minimisations  :    80
 total energy-change (2. order) :-0.2487283E-02  (-0.2832939E-03)
 number of electron       8.0000001 magnetization 
 augmentation part        0.1868663 magnetization 

 Broyden mixing:
  rms(total) = 0.24769E-02    rms(broyden)= 0.24747E-02
  rms(prec ) = 0.30358E-02
  weight for this iteration     100.00

 Free energy of the ion-electron system (eV)
  ---------------------------------------------------
  alpha Z        PSCENC =         0.24620328
  Ewald energy   TEWEN  =       129.41950104
  -Hartree energ DENC   =      -285.09334410
  -exchange      EXHF   =         0.00000000
  -V(xc)+E(xc)   XCENC  =        24.80766513
  PAW double counting   =       476.14221611     -476.93509484
  entropy T*S    EENTRO =        -0.00000000
  eigenvalues    EBANDS =       -89.64478298
  atomic energy  EATOM  =       197.04175453
  Solvation  Ediel_sol  =         0.00000000
  ---------------------------------------------------
  free energy    TOTEN  =       -24.01588182 eV

  energy without entropy =      -24.01588182  energy(sigma->0) =      -24.01588182


--------------------------------------------------------------------------------------------------------




--------------------------------------- Iteration      2(   2)  ---------------------------------------


    POTLOK:  cpu time    0.1387: real time    0.1398
    SETDIJ:  cpu time    0.0022: real time    0.0022
    EDDIAG:  cpu time    0.0383: real time    0.0386
  RMM-DIIS:  cpu time    0.1612: real time    0.1628
    ORTHCH:  cpu time    0.0017: real time    0.0017
       DOS:  cpu time    0.0002: real time    0.0002
    CHARGE:  cpu time    0.0173: real time    0.0174
    MIXING:  cpu time    0.0053: real time    0.0053
    --------------------------------------------
      LOOP:  cpu time    0.3648: real time    0.3681

 eigenvalue-minimisations  :    64
 total energy-change (2. order) : 0.7897920E-05  (-0.7441644E-05)
 number of electron       8.0000001 magnetization 
 augmentation part        0.1868861 magnetization 

 Broyden mixing:
  rms(total) = 0.14624E-02    rms(broyden)= 0.14621E-02
  rms(prec ) = 0.17224E-02
  weight for this iteration     100.00

 eigenvalues of (default mixing * dielectric matrix)
  average eigenvalue GAMMA=   1.8371
  1.8371

 Free energy of the ion-electron system (eV)
  ---------------------------------------------------
  alpha Z        PSCENC =         0.24620328
  Ewald energy   TEWEN  =       129.41950104
  -Hartree energ DENC   =      -285.06575725
  -exchange      EXHF   =         0.00000000
  -V(xc)+E(xc)   XCENC  =        24.80613420
  PAW double counting   =       475.84747353     -476.64002801
  entropy T*S    EENTRO =        -0.00000000
  eigenvalues    EBANDS =       -89.67115526
  atomic energy  EATOM  =       197.04175453
  Solvation  Ediel_sol  =         0.00000000
  ---------------------------------------------------
  free energy    TOTEN  =       -24.01587393 eV

  energy without entropy =      -24.01587393  energy(sigma->0) =      -24.01587393


--------------------------------------------------------------------------------------------------------




--------------------------------------- Iteration      2(   3)  ---------------------------------------


    POTLOK:  cpu time    0.1328: real time    0.1353
    SETDIJ:  cpu time    0.0019: real time    0.0019
    EDDIAG:  cpu time    0.0388: real time    0.0391
  RMM-DIIS:  cpu time    0.1604: real time    0.1618
    ORTHCH:  cpu time    0.0017: real time    0.0017
       DOS:  cpu time    0.0002: real time    0.0002
    CHARGE:  cpu time    0.0175: real time    0.0177
    MIXING:  cpu time    0.0051: real time    0.0052
    --------------------------------------------
      LOOP:  cpu time    0.3584: real time    0.3628

 eigenvalue-minimisations  :    64
 total energy-change (2. order) : 0.1304716E-05  (-0.2122642E-05)
 number of electron       8.0000001 magnetization 
 augmentation part        0.1869169 magnetization 

 Broyden mixing:
  rms(total) = 0.48260E-03    rms(broyden)= 0.48230E-03
  rms(prec ) = 0.56871E-03
  weight for this iteration     100.00

 eigenvalues of (default mixing * dielectric matrix)
  average eigenvalue GAMMA=   1.5811
  1.5811  1.5811

 Free energy of the ion-electron system (eV)
  ---------------------------------------------------
  alpha Z        PSCENC =         0.24620328
  Ewald energy   TEWEN  =       129.41950104
  -Hartree energ DENC   =      -285.04651800
  -exchange      EXHF   =         0.00000000
  -V(xc)+E(xc)   XCENC  =        24.80504272
  PAW double counting   =       475.46509335     -476.25739160
  entropy T*S    EENTRO =        -0.00000000
  eigenvalues    EBANDS =       -89.68955794
  atomic energy  EATOM  =       197.04175453
  Solvation  Ediel_sol  =         0.00000000
  ---------------------------------------------------
  free energy    TOTEN  =       -24.01587262 eV

  energy without entropy =      -24.01587262  energy(sigma->0) =      -24.01587262


--------------------------------------------------------------------------------------------------------




--------------------------------------- Iteration      2(   4)  ---------------------------------------


    POTLOK:  cpu time    0.1342: real time    0.1352
    SETDIJ:  cpu time    0.0021: real time    0.0021
    EDDIAG:  cpu time    0.0379: real time    0.0383
  RMM-DIIS:  cpu time    0.1290: real time    0.1303
    ORTHCH:  cpu time    0.0015: real time    0.0015
       DOS:  cpu time    0.0002: real time    0.0002
    --------------------------------------------
      LOOP:  cpu time    0.3049: real time    0.3076

 eigenvalue-minimisations  :    48
 total energy-change (2. order) : 0.1012395E-06  (-0.7732140E-07)
 number of electron       8.0000001 magnetization 
 augmentation part        0.1869169 magnetization 

 Free energy of the ion-electron system (eV)
  ---------------------------------------------------
  alpha Z        PSCENC =         0.24620328
  Ewald energy   TEWEN  =       129.41950104
  -Hartree energ DENC   =      -285.05297721
  -exchange      EXHF   =         0.00000000
  -V(xc)+E(xc)   XCENC  =        24.80532103
  PAW double counting   =       475.39036205     -476.18274293
  entropy T*S    EENTRO =        -0.00000000
  eigenvalues    EBANDS =       -89.68329431
  atomic energy  EATOM  =       197.04175453
  Solvation  Ediel_sol  =         0.00000000
  ---------------------------------------------------
  free energy    TOTEN  =       -24.01587252 eV

  energy without entropy =      -24.01587252  energy(sigma->0) =      -24.01587252


--------------------------------------------------------------------------------------------------------




 average (electrostatic) potential at core
  the test charge radii are     0.5201  0.6991
  (the norm of the test charge is              1.0000)
       1 -41.5639       2 -41.3708       3 -41.5536       4 -41.6258       5 -57.9244
 
 
 
 E-fermi :  -8.3163     XC(G=0):  -0.6910     alpha+bet : -0.2141


 k-point     1 :       0.2500    0.2500    0.2500
  band No.  band energies     occupation 
      1     -16.9253      2.00000
      2      -9.3956      2.00000
      3      -9.2873      2.00000
      4      -9.2334      2.00000
      5      -0.2982      0.00000
      6       0.5900      0.00000
      7       0.6820      0.00000
      8       0.7206      0.00000

 k-point     2 :      -0.2500    0.2500    0.2500
  band No.  band energies     occupation 
      1     -16.9253      2.00000
      2      -9.3957      2.00000
      3      -9.2872      2.00000
      4      -9.2334      2.00000
      5      -0.3003      0.00000
      6       0.5901      0.00000
      7       0.6903      0.00000
      8       0.7225      0.00000

 k-point     3 :       0.2500   -0.2500    0.2500
  band No.  band energies     occupation 
      1     -16.9253      2.00000
      2      -9.3957      2.00000
      3      -9.2873      2.00000
      4      -9.2334      2.00000
      5      -0.3011      0.00000
      6       0.5908      0.00000
      7       0.6936      0.00000
      8       0.7254      0.00000

 k-point     4 :      -0.2500   -0.2500    0.2500
  band No.  band energies     occupation 
      1     -16.9253      2.00000
      2      -9.3957      2.00000
      3      -9.2872      2.00000
      4      -9.2334      2.00000
      5      -0.2992      0.00000
      6       0.5913      0.00000
      7       0.6828      0.00000
      8       0.7237      0.00000


--------------------------------------------------------------------------------------------------------


 soft charge-density along one line, spin component           1
         0         1         2         3         4         5         6         7         8         9
 total charge-density along one line
 
 pseudopotential strength for first ion, spin component:           1
 -2.341  -4.035  -0.001  -0.001   0.001
 -4.035  -6.867  -0.003  -0.004   0.002
 -0.001  -0.003  -0.337   0.002  -0.001
 -0.001  -0.004   0.002  -0.335  -0.001
  0.001   0.002  -0.001  -0.001  -0.338
 total augmentation occupancy for first ion, spin component:           1
  3.588  -0.644   0.248   0.339  -0.142
 -0.644   0.130  -0.045  -0.063   0.026
  0.248  -0.045   0.024   0.019  -0.008
  0.339  -0.063   0.019   0.036  -0.011
 -0.142   0.026  -0.008  -0.011   0.014


------------------------ aborting loop because EDIFF is reached ----------------------------------------


    CHARGE:  cpu time    0.0175: real time    0.0176
    FORLOC:  cpu time    0.0145: real time    0.0146
    FORNL :  cpu time    0.0211: real time    0.0211
    STRESS:  cpu time    0.1655: real time    0.1663
    FORCOR:  cpu time    0.1767: real time    0.1791
    FORHAR:  cpu time    0.0450: real time    0.0455
    MIXING:  cpu time    0.0059: real time    0.0059
    OFIELD:  cpu time    0.0000: real time    0.0000

  FORCE on cell =-STRESS in cart. coord.  units (eV):
  Direction    XX          YY          ZZ          XY          YZ          ZX
  --------------------------------------------------------------------------------------
  Alpha Z     0.24620     0.24620     0.24620
  Ewald      40.37715    44.57748    44.46487    -0.70076    -0.55067     0.36856
  Hartree    93.37736    95.12551    96.55209    -0.34849    -0.12460     0.10254
  E(xc)     -27.27515   -27.27394   -27.28930    -0.00347    -0.00128     0.00206
  Local    -192.93344  -197.98461  -199.62002     0.97553     0.53537    -0.40685
  n-local   -15.96809   -16.05941   -16.09654    -0.00073     0.00535     0.00370
  augment     0.11817     0.10954     0.11076     0.00046     0.00124    -0.00044
  Kinetic   101.30525   101.27933   102.08303     0.15537     0.07278    -0.10858
  Fock        0.00000     0.00000     0.00000     0.00000     0.00000     0.00000
  -------------------------------------------------------------------------------------
  Total      -0.75254     0.02012     0.45109     0.07791    -0.06181    -0.03901
  in kB      -1.22537     0.03276     0.73453     0.12686    -0.10065    -0.06352
  external pressure =       -0.15 kB  Pullay stress =        0.00 kB

  kinetic pressure (ideal gas correction) =      0.00 kB
  total pressure  =     -0.15 kB
  Total+kin.    -1.224       0.033       0.737       0.127      -0.101      -0.063

 VOLUME and BASIS-vectors are now :
 -----------------------------------------------------------------------------
  energy-cutoff  :      400.00
[...]
 -----------------------------------------------------------------------------------------------
   -.661E+00 0.257E+00 -.174E+00   -.178E-14 -.355E-14 0.000E+00   0.661E+00 -.258E+00 0.174E+00   0.886E-04 0.736E-04 -.316E-04
 
 
 POSITION                                       TOTAL-FORCE (eV/Angst)
 -----------------------------------------------------------------------------------
      5.38924      4.02702      3.50857        -0.097144      0.203173      0.232596
      3.95819      4.76160      4.29235        -0.419036      0.043861     -0.010101
      5.52188      5.62835      4.33364        -0.078099     -0.204698      0.017188
      5.29290      4.11734      5.30867        -0.122420      0.269640     -0.406351
      5.03311      4.63926      4.36010         0.716598     -0.312297      0.166633
 -----------------------------------------------------------------------------------
    total drift:                               -0.000101     -0.000322     -0.000034


--------------------------------------------------------------------------------------------------------



  FREE ENERGIE OF THE ION-ELECTRON SYSTEM (eV)
  ---------------------------------------------------
  free  energy   TOTEN  =       -24.02011816 eV

  energy  without entropy=      -24.02011816  energy(sigma->0) =      -24.02011816
 
 d Force =-0.4056347E-02[-0.472E-02,-0.340E-02]  d Energy =-0.4057518E-02 0.117E-05
 d Force = 0.3130343E+00[ 0.311E+00, 0.315E+00]  d Ewald  = 0.3130333E+00 0.980E-06


--------------------------------------------------------------------------------------------------------


    POTLOK:  cpu time    0.1413: real time    0.1417


--------------------------------------------------------------------------------------------------------


           RANDOM_SEED =         172296231               30                0
   IONSTEP:  cpu time    0.0001: real time    0.0001

  ENERGY OF THE ELECTRON-ION-THERMOSTAT SYSTEM (eV)
  ---------------------------------------------------
% ion-electron   TOTEN  =       -24.020118  see above
  kinetic energy EKIN   =         0.006938
  kin. lattice  EKIN_LAT=         0.000000  (temperature   13.42 K)
  nose potential ES     =         0.000000
  nose kinetic   EPS    =         0.000000
  ---------------------------------------------------
  total energy   ETOTAL =       -24.013180 eV

  maximum distance moved by ions :      0.35E-03

    WAVPRE:  cpu time    0.0481: real time    0.0485
    FEWALD:  cpu time    0.0003: real time    0.0003
    ORTHCH:  cpu time    0.0092: real time    0.0092
 Prediction of Wavefunctions ALPHA= 2.170 BETA=-1.204
     LOOP+:  cpu time    3.0443: real time    3.0569


--------------------------------------- Iteration     10(   1)  ---------------------------------------


    POTLOK:  cpu time    0.1331: real time    0.1339
    SETDIJ:  cpu time    0.0017: real time    0.0017
     EDDAV:  cpu time    0.1776: real time    0.1779
       DOS:  cpu time    0.0003: real time    0.0003
    CHARGE:  cpu time    0.0176: real time    0.0177
    MIXING:  cpu time    0.0063: real time    0.0063
    --------------------------------------------
      LOOP:  cpu time    0.3367: real time    0.3378

 eigenvalue-minimisations  :    80
 total energy-change (2. order) : 0.3508225E-02  (-0.2890071E-04)
 number of electron       8.0000002 magnetization 
 augmentation part        0.1835801 magnetization 

 Broyden mixing:
  rms(total) = 0.80366E-04    rms(broyden)= 0.79938E-04
  rms(prec ) = 0.91566E-04
  weight for this iteration     100.00

 Free energy of the ion-electron system (eV)
  ---------------------------------------------------
  alpha Z        PSCENC =         0.24620328
  Ewald energy   TEWEN  =       126.62483305
  -Hartree energ DENC   =      -282.59799008
  -exchange      EXHF   =         0.00000000
  -V(xc)+E(xc)   XCENC  =        24.67551050
  PAW double counting   =       458.58474749     -459.36734177
  entropy T*S    EENTRO =        -0.00000000
  eigenvalues    EBANDS =       -89.22432645
  atomic energy  EATOM  =       197.04175453
  Solvation  Ediel_sol  =         0.00000000
  ---------------------------------------------------
  free energy    TOTEN  =       -24.01660944 eV

  energy without entropy =      -24.01660944  energy(sigma->0) =      -24.01660944


--------------------------------------------------------------------------------------------------------




--------------------------------------- Iteration     10(   2)  ---------------------------------------


    POTLOK:  cpu time    0.1353: real time    0.1357
    SETDIJ:  cpu time    0.0016: real time    0.0017
    EDDIAG:  cpu time    0.0389: real time    0.0389
  RMM-DIIS:  cpu time    0.1430: real time    0.1443
    ORTHCH:  cpu time    0.0016: real time    0.0016
       DOS:  cpu time    0.0002: real time    0.0002
    CHARGE:  cpu time    0.0182: real time    0.0185
    MIXING:  cpu time    0.0047: real time    0.0047
    --------------------------------------------
      LOOP:  cpu time    0.3436: real time    0.3456

 eigenvalue-minimisations  :    52
 total energy-change (2. order) :-0.5374380E-06  (-0.2152687E-06)
 number of electron       8.0000002 magnetization 
 augmentation part        0.1835857 magnetization 

 Broyden mixing:
  rms(total) = 0.75241E-04    rms(broyden)= 0.75142E-04
  rms(prec ) = 0.86324E-04
  weight for this iteration     100.00

 eigenvalues of (default mixing * dielectric matrix)
  average eigenvalue GAMMA=   0.5404
  0.5404

 Free energy of the ion-electron system (eV)
  ---------------------------------------------------
  alpha Z        PSCENC =         0.24620328
  Ewald energy   TEWEN  =       126.62483305
  -Hartree energ DENC   =      -282.59730904
  -exchange      EXHF   =         0.00000000
  -V(xc)+E(xc)   XCENC  =        24.67546485
  PAW double counting   =       458.57256687     -459.35514070
  entropy T*S    EENTRO =        -0.00000000
  eigenvalues    EBANDS =       -89.22498282
  atomic energy  EATOM  =       197.04175453
  Solvation  Ediel_sol  =         0.00000000
  ---------------------------------------------------
  free energy    TOTEN  =       -24.01660998 eV

  energy without entropy =      -24.01660998  energy(sigma->0) =      -24.01660998


--------------------------------------------------------------------------------------------------------




--------------------------------------- Iteration     10(   3)  ---------------------------------------


    POTLOK:  cpu time    0.1349: real time    0.1356
    SETDIJ:  cpu time    0.0017: real time    0.0017
    EDDIAG:  cpu time    0.0397: real time    0.0398
  RMM-DIIS:  cpu time    0.1297: real time    0.1302
    ORTHCH:  cpu time    0.0016: real time    0.0016
       DOS:  cpu time    0.0005: real time    0.0005
    CHARGE:  cpu time    0.0185: real time    0.0185
    MIXING:  cpu time    0.0050: real time    0.0051
    --------------------------------------------
      LOOP:  cpu time    0.3315: real time    0.3328

 eigenvalue-minimisations  :    47
 total energy-change (2. order) :-0.1437837E-06  (-0.1492849E-07)
 number of electron       8.0000002 magnetization 
 augmentation part        0.1835864 magnetization 

 Broyden mixing:
  rms(total) = 0.67358E-04    rms(broyden)= 0.67348E-04
  rms(prec ) = 0.76674E-04
  weight for this iteration     100.00

 eigenvalues of (default mixing * dielectric matrix)
  average eigenvalue GAMMA=   1.3492
  1.3492  1.3492

 Free energy of the ion-electron system (eV)
  ---------------------------------------------------
  alpha Z        PSCENC =         0.24620328
  Ewald energy   TEWEN  =       126.62483305
  -Hartree energ DENC   =      -282.59709126
  -exchange      EXHF   =         0.00000000
  -V(xc)+E(xc)   XCENC  =        24.67545663
  PAW double counting   =       458.56253183     -459.34510317
  entropy T*S    EENTRO =        -0.00000000
  eigenvalues    EBANDS =       -89.22519503
  atomic energy  EATOM  =       197.04175453
  Solvation  Ediel_sol  =         0.00000000
  ---------------------------------------------------
  free energy    TOTEN  =       -24.01661013 eV

  energy without entropy =      -24.01661013  energy(sigma->0) =      -24.01661013


--------------------------------------------------------------------------------------------------------




--------------------------------------- Iteration     10(   4)  ---------------------------------------


    POTLOK:  cpu time    0.1363: real time    0.1369
    SETDIJ:  cpu time    0.0017: real time    0.0017
    EDDIAG:  cpu time    0.0383: real time    0.0385
  RMM-DIIS:  cpu time    0.1280: real time    0.1281
    ORTHCH:  cpu time    0.0015: real time    0.0015
       DOS:  cpu time    0.0002: real time    0.0002
    --------------------------------------------
      LOOP:  cpu time    0.3060: real time    0.3069

 eigenvalue-minimisations  :    40
 total energy-change (2. order) :-0.4182202E-06  (-0.3593165E-08)
 number of electron       8.0000002 magnetization 
 augmentation part        0.1835864 magnetization 

 Free energy of the ion-electron system (eV)
  ---------------------------------------------------
  alpha Z        PSCENC =         0.24620328
  Ewald energy   TEWEN  =       126.62483305
  -Hartree energ DENC   =      -282.59657875
  -exchange      EXHF   =         0.00000000
  -V(xc)+E(xc)   XCENC  =        24.67544546
  PAW double counting   =       458.52534092     -459.30790826
  entropy T*S    EENTRO =        -0.00000000
  eigenvalues    EBANDS =       -89.22570077
  atomic energy  EATOM  =       197.04175453
  Solvation  Ediel_sol  =         0.00000000
  ---------------------------------------------------
  free energy    TOTEN  =       -24.01661054 eV

  energy without entropy =      -24.01661054  energy(sigma->0) =      -24.01661054


--------------------------------------------------------------------------------------------------------




 average (electrostatic) potential at core
  the test charge radii are     0.5201  0.6991
  (the norm of the test charge is              1.0000)
       1 -41.3988       2 -41.6235       3 -41.4397       4 -41.3525       5 -57.9975
 
 
 
 E-fermi :  -8.2028     XC(G=0):  -0.7006     alpha+bet : -0.2141


 k-point     1 :       0.2500    0.2500    0.2500
  band No.  band energies     occupation 
      1     -16.8342      2.00000
      2      -9.3389      2.00000
      3      -9.2508      2.00000
      4      -9.1889      2.00000
      5      -0.3177      0.00000
      6       0.5812      0.00000
      7       0.6744      0.00000
      8       0.7085      0.00000

 k-point     2 :      -0.2500    0.2500    0.2500
  band No.  band energies     occupation 
      1     -16.8341      2.00000
      2      -9.3389      2.00000
      3      -9.2509      2.00000
      4      -9.1889      2.00000
      5      -0.3198      0.00000
      6       0.5824      0.00000
      7       0.6788      0.00000
      8       0.7119      0.00000

 k-point     3 :       0.2500   -0.2500    0.2500
  band No.  band energies     occupation 
      1     -16.8342      2.00000
      2      -9.3389      2.00000
      3      -9.2508      2.00000
      4      -9.1890      2.00000
      5      -0.3204      0.00000
      6       0.5816      0.00000
      7       0.6822      0.00000
      8       0.7158      0.00000

 k-point     4 :      -0.2500   -0.2500    0.2500
  band No.  band energies     occupation 
      1     -16.8342      2.00000
      2      -9.3389      2.00000
      3      -9.2509      2.00000
      4      -9.1889      2.00000
      5      -0.3184      0.00000
      6       0.5802      0.00000
      7       0.6754      0.00000
      8       0.7129      0.00000


--------------------------------------------------------------------------------------------------------


 soft charge-density along one line, spin component           1
         0         1         2         3         4         5         6         7         8         9
 total charge-density along one line
 
 pseudopotential strength for first ion, spin component:           1
 -2.340  -4.032  -0.001  -0.001   0.001
 -4.032  -6.862  -0.003  -0.004   0.002
 -0.001  -0.003  -0.338   0.002  -0.001
 -0.001  -0.004   0.002  -0.337  -0.001
  0.001   0.002  -0.001  -0.001  -0.339
 total augmentation occupancy for first ion, spin component:           1
  3.499  -0.631   0.230   0.320  -0.134
 -0.631   0.128  -0.043  -0.060   0.025
  0.230  -0.043   0.021   0.018  -0.007
  0.320  -0.060   0.018   0.033  -0.010
 -0.134   0.025  -0.007  -0.010   0.013


------------------------ aborting loop because EDIFF is reached ----------------------------------------


    CHARGE:  cpu time    0.0180: real time    0.0180
    FORLOC:  cpu time    0.0142: real time    0.0142
    FORNL :  cpu time    0.0215: real time    0.0217
    STRESS:  cpu time    0.1671: real time    0.1672
    FORCOR:  cpu time    0.1418: real time    0.1422
    FORHAR:  cpu time    0.0460: real time    0.0460
    MIXING:  cpu time    0.0051: real time    0.0051
    OFIELD:  cpu time    0.0000: real time    0.0000

  FORCE on cell =-STRESS in cart. coord.  units (eV):
  Direction    XX          YY          ZZ          XY          YZ          ZX
  --------------------------------------------------------------------------------------
  Alpha Z     0.24620     0.24620     0.24620
  Ewald      41.26223    42.07315    43.28945    -0.25508    -0.07714     0.12895
  Hartree    92.04122    94.20439    96.35057    -0.18125    -0.12191     0.02377
  E(xc)     -27.14292   -27.13593   -27.13843    -0.00017    -0.00119     0.00052
  Local    -191.59235  -195.23840  -198.92694     0.41111     0.23794    -0.12099
  n-local   -15.81588   -15.72212   -15.70004     0.00356    -0.01022    -0.00012
  augment     0.11308     0.12041     0.12308     0.00027    -0.00045    -0.00031
  Kinetic   100.90962   100.54921   100.67550     0.00144     0.06546    -0.02875
  Fock        0.00000     0.00000     0.00000     0.00000     0.00000     0.00000
  -------------------------------------------------------------------------------------
  Total       0.02121    -0.90310    -1.08061    -0.02013     0.09249     0.00305
  in kB       0.03454    -1.47053    -1.75958    -0.03277     0.15061     0.00497
  external pressure =       -1.07 kB  Pullay stress =        0.00 kB

  kinetic pressure (ideal gas correction) =      0.01 kB
  total pressure  =     -1.06 kB
  Total+kin.     0.038      -1.470      -1.747      -0.033       0.151       0.005

 VOLUME and BASIS-vectors are now :
 -----------------------------------------------------------------------------
  energy-cutoff  :      400.00
  volume of cell :      983.95
      direct lattice vectors                 reciprocal lattice vectors
    10.098379740  0.000000000  0.000000000     0.099025787  0.001063067  0.000008918
    -0.106925764  9.960244093  0.000000000     0.000000000  0.100399146  0.000394039
    -0.000468852 -0.038393611  9.782496214     0.000000000  0.000000000  0.102223398

  length of vectors
    10.098379740  9.960818014  9.782571567     0.099031493  0.100399919  0.102223398


 FORCES acting on ions
    electron-ion (+dipol)            ewald-force                    non-local-force                 convergence-correction
 -----------------------------------------------------------------------------------------------
   -.168E+02 0.288E+02 0.401E+02   0.184E+02 -.315E+02 -.439E+02   -.171E+01 0.294E+01 0.409E+01   -.413E-04 0.926E-05 -.459E-05
   0.530E+02 -.604E+01 0.329E+01   -.591E+02 0.675E+01 -.367E+01   0.569E+01 -.645E+00 0.358E+00   0.341E-05 0.783E-06 -.350E-05
   -.232E+02 -.469E+02 0.122E+01   0.255E+02 0.515E+02 -.134E+01   -.239E+01 -.482E+01 0.129E+00   -.418E-04 0.234E-05 -.410E-05
   -.121E+02 0.242E+02 -.442E+02   0.132E+02 -.264E+02 0.482E+02   -.122E+01 0.245E+01 -.445E+01   -.425E-04 0.214E-04 -.246E-04
   -.165E+01 0.261E+00 -.639E+00   0.208E+01 -.396E+00 0.760E+00   0.406E+00 -.206E+00 0.793E-01   -.202E-03 -.170E-04 0.208E-04
 -----------------------------------------------------------------------------------------------
   -.778E+00 0.293E+00 -.204E+00   0.000E+00 0.000E+00 0.000E+00   0.778E+00 -.294E+00 0.204E+00   -.324E-03 0.169E-04 -.160E-04
 
 
 POSITION                                       TOTAL-FORCE (eV/Angst)
 -----------------------------------------------------------------------------------
      5.38954      4.02710      3.50605        -0.112313      0.227126      0.287764
      3.96007      4.76112      4.29296        -0.493675      0.055786     -0.017331
      5.52281      5.62930      4.33385        -0.099526     -0.241396      0.017292
      5.29276      4.11747      5.31205        -0.134533      0.298721     -0.487746
      5.03287      4.63921      4.35996         0.840215     -0.340338      0.199857
 -----------------------------------------------------------------------------------
    total drift:                                0.000168     -0.000100     -0.000165


--------------------------------------------------------------------------------------------------------



  FREE ENERGIE OF THE ION-ELECTRON SYSTEM (eV)
  ---------------------------------------------------
  free  energy   TOTEN  =       -24.01661054 eV

  energy  without entropy=      -24.01661054  energy(sigma->0) =      -24.01661054
 
 d Force =-0.3505851E-02[-0.383E-02,-0.318E-02]  d Energy =-0.3507615E-02 0.176E-05
 d Force = 0.2276930E+00[ 0.227E+00, 0.228E+00]  d Ewald  = 0.2276928E+00 0.150E-06


--------------------------------------------------------------------------------------------------------


    POTLOK:  cpu time    0.1382: real time    0.1387


--------------------------------------------------------------------------------------------------------


           RANDOM_SEED =         172296231               30                0
   IONSTEP:  cpu time    0.0001: real time    0.0001

  ENERGY OF THE ELECTRON-ION-THERMOSTAT SYSTEM (eV)
  ---------------------------------------------------
% ion-electron   TOTEN  =       -24.016611  see above
  kinetic energy EKIN   =         0.003505
  kin. lattice  EKIN_LAT=         0.000000  (temperature    6.78 K)
  nose potential ES     =         0.000000
  nose kinetic   EPS    =         0.000000
  ---------------------------------------------------
  total energy   ETOTAL =       -24.013105 eV

  maximum distance moved by ions :      0.25E-03


 mean value of Nose-termostat <S>:     1.000 mean value of <T> :    16.650
 mean temperature <T/S>/<1/S>  :    16.650

    WAVPRE:  cpu time    0.0529: real time    0.0531
    FEWALD:  cpu time    0.0003: real time    0.0003
    ORTHCH:  cpu time    0.0091: real time    0.0091
 Prediction of Wavefunctions ALPHA= 2.096 BETA=-1.122
    POTLOK:  cpu time    0.1359: real time    0.1367
    EDDIAG:  cpu time    0.0398: real time    0.0398
     LOOP+:  cpu time    2.1134: real time    2.1213
    4ORBIT:  cpu time    0.0000: real time    0.0000

 total amount of memory used by VASP MPI-rank0    54599. kBytes
=======================================================================

   base      :      30000. kBytes
   nonl-proj :       2645. kBytes
   fftplans  :       7851. kBytes
   grid      :      12378. kBytes
   one-center:          6. kBytes
   wavefun   :       1719. kBytes
 
  
  
 General timing and accounting informations for this job:
 ========================================================
  
                  Total CPU time used (sec):       28.869
                            User time (sec):       26.428
                          System time (sec):        2.441
                         Elapsed time (sec):       29.450
  
                   Maximum memory used (kb):      177668.
                   Average memory used (kb):           0.
  
                          Minor page faults:       242886
                          Major page faults:            0
                 Voluntary context switches:           62
