 vasp.5.4.4.18Apr17-6-g9f103f2a35 (build Jul 09 2021 13:05:15) complex          
  
 executed on             LinuxIFC date 2021.11.04  19:02:11
 running on   16 total cores
 distrk:  each k-point on   16 cores,    1 groups
 distr:  one band on NCORES_PER_BAND=   4 cores,    4 groups


--------------------------------------------------------------------------------------------------------


 INCAR:
 POTCAR:    PAW_PBE H 15Jun2001                   
 POTCAR:    PAW_PBE C 08Apr2002                   
 POTCAR:    PAW_PBE H 15Jun2001                   
   VRHFIN =H: ultrasoft test                                                    
   LEXCH  = PE                                                                  
   EATOM  =    12.4884 eV,    0.9179 Ry                                         
                                                                                
   TITEL  = PAW_PBE H 15Jun2001                                                 
   LULTRA =        F    use ultrasoft PP ?                                      
   IUNSCR =        0    unscreen: 0-lin 1-nonlin 2-no                           
   RPACOR =    0.000    partial core radius                                     
   POMASS =    1.000; ZVAL   =    1.000    mass and valenz                      
   RCORE  =    1.100    outmost cutoff radius                                   
   RWIGS  =    0.700; RWIGS  =    0.370    wigner-seitz radius (au A)           
   ENMAX  =  250.000; ENMIN  =  200.000 eV                                      
   RCLOC  =    0.701    cutoff for local pot                                    
   LCOR   =        T    correct aug charges                                     
   LPAW   =        T    paw PP                                                  
   EAUG   =  400.000                                                            
   RMAX   =    1.123    core radius for proj-oper                               
   RAUG   =    1.200    factor for augmentation sphere                          
   RDEP   =    1.112    radius for radial grids                                 
   RDEPT  =    0.926    core radius for aug-charge                              
                                                                                
   Atomic configuration                                                         
    2 entries                                                                   
     n  l   j            E        occ.                                          
     1  0  0.50        -6.4927   1.0000                                         
     2  1  0.50        -3.4015   0.0000                                         
   Description                                                                  
     l       E           TYP  RCUT    TYP  RCUT                                 
     0     -6.4927494     23  1.100                                             
     0      6.8029130     23  1.100                                             
     1     -4.0817478     23  1.100                                             
  local pseudopotential read in
  atomic valenz-charges read in
  non local Contribution for L=           0  read in
    real space projection operators read in
  non local Contribution for L=           0  read in
    real space projection operators read in
  non local Contribution for L=           1  read in
    real space projection operators read in
    PAW grid and wavefunctions read in
 
   number of l-projection  operators is LMAX  =           3
   number of lm-projection operators is LMMAX =           5
 
 POTCAR:    PAW_PBE C 08Apr2002                   
   VRHFIN =C: s2p2                                                              
   LEXCH  = PE                                                                  
   EATOM  =   147.1560 eV,   10.8157 Ry                                         
                                                                                
   TITEL  = PAW_PBE C 08Apr2002                                                 
   LULTRA =        F    use ultrasoft PP ?                                      
   IUNSCR =        1    unscreen: 0-lin 1-nonlin 2-no                           
   RPACOR =    1.200    partial core radius                                     
   POMASS =   12.011; ZVAL   =    4.000    mass and valenz                      
   RCORE  =    1.500    outmost cutoff radius                                   
   RWIGS  =    1.630; RWIGS  =    0.863    wigner-seitz radius (au A)           
   ENMAX  =  400.000; ENMIN  =  300.000 eV                                      
   ICORE  =        2    local potential                                         
   LCOR   =        T    correct aug charges                                     
   LPAW   =        T    paw PP                                                  
   EAUG   =  644.873                                                            
   DEXC   =    0.000                                                            
   RMAX   =    1.529    core radius for proj-oper                               
   RAUG   =    1.300    factor for augmentation sphere                          
   RDEP   =    1.501    radius for radial grids                                 
   RDEPT  =    1.300    core radius for aug-charge                              
                                                                                
   Atomic configuration                                                         
    4 entries                                                                   
     n  l   j            E        occ.                                          
     1  0  0.50      -273.3789   2.0000                                         
     2  0  0.50       -13.7508   2.0000                                         
     2  1  0.50        -5.2854   2.0000                                         
     3  2  1.50        -5.4423   0.0000                                         
   Description                                                                  
     l       E           TYP  RCUT    TYP  RCUT                                 
     0    -13.7508458     23  1.200                                             
     0     -8.2022199     23  1.200                                             
     1     -5.2854383     23  1.500                                             
     1     34.0145650     23  1.500                                             
     2     -5.4423304      7  1.500                                             
  local pseudopotential read in
  partial core-charges read in
  partial kinetic energy density read in
  atomic valenz-charges read in
  non local Contribution for L=           0  read in
    real space projection operators read in
  non local Contribution for L=           0  read in
    real space projection operators read in
  non local Contribution for L=           1  read in
    real space projection operators read in
  non local Contribution for L=           1  read in
    real space projection operators read in
    PAW grid and wavefunctions read in
 
   number of l-projection  operators is LMAX  =           4
   number of lm-projection operators is LMMAX =           8
 
  PAW_PBE H 15Jun2001                   :
 energy of atom  1       EATOM=  -12.4884
 kinetic energy error for atom=    0.0098 (will be added to EATOM!!)
  PAW_PBE C 08Apr2002                   :
 energy of atom  2       EATOM= -147.1560
 kinetic energy error for atom=    0.0288 (will be added to EATOM!!)
 
 
 POSCAR:  H  C                                   
  positions in cartesian coordinates
  No initial velocities read in
 exchange correlation table for  LEXCH =        8
   RHO(1)=    0.500       N(1)  =     2000
   RHO(2)=  100.500       N(2)  =     4000
 


--------------------------------------------------------------------------------------------------------


 ion  position               nearest neighbor table
   1  0.538  0.407  0.360-   5 1.08
   2  0.395  0.481  0.439-   5 1.06
   3  0.551  0.565  0.443-   5 1.07
   4  0.528  0.416  0.539-   5 1.09
   5  0.503  0.468  0.445-   2 1.06   3 1.07   1 1.08   4 1.09
 

IMPORTANT INFORMATION: All symmetrisations will be switched off!
NOSYMM: (Re-)initialisation of all symmetry stuff for point group C_1.

 
 

Automatic generation of k-mesh.
 generate k-points for:    2    2    2
Space group operators:
 irot       det(A)        alpha          n_x          n_y          n_z        tau_x        tau_y        tau_z
    1     1.000000     0.000000     1.000000     0.000000     0.000000     0.000000     0.000000     0.000000
 
 Subroutine IBZKPT returns following result:
 ===========================================
 
 Found      4 irreducible k-points:
 
 Following reciprocal coordinates:
            Coordinates               Weight
  0.250000  0.250000  0.250000      2.000000
 -0.250000  0.250000  0.250000      2.000000
  0.250000 -0.250000  0.250000      2.000000
 -0.250000 -0.250000  0.250000      2.000000
 
 Following cartesian coordinates:
            Coordinates               Weight
  0.025756  0.025391  0.025687      2.000000
 -0.025756  0.025520  0.025176      2.000000
  0.025756 -0.025520  0.025416      2.000000
 -0.025756 -0.025391  0.024905      2.000000
 


--------------------------------------------------------------------------------------------------------




 Dimension of arrays:
   k-points           NKPTS =      4   k-points in BZ     NKDIM =      4   number of bands    NBANDS=      8
   number of dos      NEDOS =    301   number of ions     NIONS =      5
   non local maximal  LDIM  =      4   non local SUM 2l+1 LMDIM =      8
   total plane-waves  NPLWV = 262144
   max r-space proj   IRMAX =      1   max aug-charges    IRDMAX=   3483
   dimension x,y,z NGX =    64 NGY =   64 NGZ =   64
   dimension x,y,z NGXF=   128 NGYF=  128 NGZF=  128
   support grid    NGXF=   128 NGYF=  128 NGZF=  128
   ions per type =               4   1
   NGX,Y,Z   is equivalent  to a cutoff of  10.96, 10.83, 10.77 a.u.
   NGXF,Y,Z  is equivalent  to a cutoff of  21.92, 21.67, 21.53 a.u.

 SYSTEM =  unknown system                          
 POSCAR =   H  C                                   

 Startparameter for this run:
   NWRITE =      2    write-flag & timer
   PREC   = a         normal or accurate (medium, high low for compatibility)
   ISTART =      0    job   : 0-new  1-cont  2-samecut
   ICHARG =      2    charge: 1-file 2-atom 10-const
   ISPIN  =      1    spin polarized calculation?
   LNONCOLLINEAR =      F non collinear calculations
   LSORBIT =      F    spin-orbit coupling
   INIWAV =      1    electr: 0-lowe 1-rand  2-diag
   LASPH  =      F    aspherical Exc in radial PAW
   METAGGA=      F    non-selfconsistent MetaGGA calc.

 Electronic Relaxation 1
   ENCUT  =  400.0 eV  29.40 Ry    5.42 a.u.  15.83 16.02 16.12*2*pi/ulx,y,z
   ENINI  =  400.0     initial cutoff
   ENAUG  =  644.9 eV  augmentation charge cutoff
   NELM   =    120;   NELMIN=  4; NELMDL= -5     # of ELM steps 
   EDIFF  = 0.1E-05   stopping-criterion for ELM
   LREAL  =      F    real-space projection
   NLSPLINE    = F    spline interpolate recip. space projectors
   LCOMPAT=      F    compatible to vasp.4.4
   GGA_COMPAT  = T    GGA compatible to vasp.4.4-vasp.4.6
   LMAXPAW     = -100 max onsite density
   LMAXMIX     =    2 max onsite mixed and CHGCAR
   VOSKOWN=      0    Vosko Wilk Nusair interpolation
   ROPT   =    0.00000   0.00000
 Ionic relaxation
   EDIFFG = 0.1E-04   stopping-criterion for IOM
   NSW    =     10    number of steps for IOM
   NBLOCK =      1;   KBLOCK =     10    inner block; outer block 
   IBRION =      0    ionic relax: 0-MD 1-quasi-New 2-CG
   NFREE  =      0    steps in history (QN), initial steepest desc. (CG)
   ISIF   =      2    stress and relaxation
   IWAVPR =     12    prediction:  0-non 1-charg 2-wave 3-comb
   ISYM   =      0    0-nonsym 1-usesym 2-fastsym
   LCORR  =      T    Harris-Foulkes like correction to forces

   POTIM  = 0.5000    time-step for ionic-motion
   TEIN   =    0.0    initial temperature
   TEBEG  =    0.0;   TEEND  =   0.0 temperature during run
   SMASS  =  -3.00    Nose mass-parameter (am)
   estimated Nose-frequenzy (Omega)   =  0.10E-29 period in steps =****** mass=  -0.215E-26a.u.
   SCALEE = 1.0000    scale energy and forces
   NPACO  =    256;   APACO  = 16.0  distance and # of slots for P.C.
   PSTRESS=    0.0 pullay stress

  Mass of Ions in am
   POMASS =   1.00 12.01
  Ionic Valenz
   ZVAL   =   1.00  4.00
  Atomic Wigner-Seitz radii
   RWIGS  =  -1.00 -1.00
  virtual crystal weights 
   VCA    =   1.00  1.00
   NELECT =       8.0000    total number of electrons
   NUPDOWN=      -1.0000    fix difference up-down

 DOS related values:
   EMIN   =  10.00;   EMAX   =-10.00  energy-range for DOS
   EFERMI =   0.00
   ISMEAR =     0;   SIGMA  =   0.20  broadening in eV -4-tet -1-fermi 0-gaus

 Electronic relaxation 2 (details)
   IALGO  =     68    algorithm
   LDIAG  =      T    sub-space diagonalisation (order eigenvalues)
   LSUBROT=      F    optimize rotation matrix (better conditioning)
   TURBO    =      0    0=normal 1=particle mesh
   IRESTART =      0    0=no restart 2=restart with 2 vectors
   NREBOOT  =      0    no. of reboots
   NMIN     =      0    reboot dimension
   EREF     =   0.00    reference energy to select bands
   IMIX   =      4    mixing-type and parameters
     AMIX     =   0.40;   BMIX     =  1.00
     AMIX_MAG =   1.60;   BMIX_MAG =  1.00
     AMIN     =   0.10
     WC   =   100.;   INIMIX=   1;  MIXPRE=   1;  MAXMIX= -45

 Intra band minimization:
   WEIMIN = 0.0010     energy-eigenvalue tresh-hold
   EBREAK =  0.31E-07  absolut break condition
   DEPER  =   0.30     relativ break condition  

   TIME   =   0.40     timestep for ELM

  volume/ion in A,a.u.               =     188.42      1271.55
  Fermi-wavevector in a.u.,A,eV,Ry     =   0.333992  0.631153  1.517735  0.111550
  Thomas-Fermi vector in A             =   1.232315
 
 Write flags
   LWAVE        =      F    write WAVECAR
   LDOWNSAMPLE  =      F    k-point downsampling of WAVECAR
   LCHARG       =      F    write CHGCAR
   LVTOT        =      F    write LOCPOT, total local potential
   LVHAR        =      F    write LOCPOT, Hartree potential only
   LELF         =      F    write electronic localiz. function (ELF)
   LORBIT       =      0    0 simple, 1 ext, 2 COOP (PROOUT), +10 PAW based schemes


 Dipole corrections
   LMONO  =      F    monopole corrections only (constant potential shift)
   LDIPOL =      F    correct potential (dipole corrections)
   IDIPOL =      0    1-x, 2-y, 3-z, 4-all directions 
   EPSILON=  1.0000000 bulk dielectric constant

 Exchange correlation treatment:
   GGA     =    --    GGA type
   LEXCH   =     8    internal setting for exchange type
   VOSKOWN=      0    Vosko Wilk Nusair interpolation
   LHFCALC =     F    Hartree Fock is set to
   LHFONE  =     F    Hartree Fock one center treatment
   AEXX    =    0.0000 exact exchange contribution

 Linear response parameters
   LEPSILON=     F    determine dielectric tensor
   LRPA    =     F    only Hartree local field effects (RPA)
   LNABLA  =     F    use nabla operator in PAW spheres
   LVEL    =     F    velocity operator in full k-point grid
   LINTERFAST=   F  fast interpolation
   KINTER  =     0    interpolate to denser k-point grid
   CSHIFT  =0.1000    complex shift for real part using Kramers Kronig
   OMEGAMAX=  -1.0    maximum frequency
   DEG_THRESHOLD= 0.2000000E-02 threshold for treating states as degnerate
   RTIME   =   -0.100 relaxation time in fs
  (WPLASMAI=    0.000 imaginary part of plasma frequency in eV, 0.658/RTIME)
   DFIELD  = 0.0000000 0.0000000 0.0000000 field for delta impulse in time
 
 Orbital magnetization related:
   ORBITALMAG=     F  switch on orbital magnetization
   LCHIMAG   =     F  perturbation theory with respect to B field
   DQ        =  0.001000  dq finite difference perturbation B field
   LLRAUG    =     F  two centre corrections for induced B field



--------------------------------------------------------------------------------------------------------


 molecular dynamics for ions
   using a microcanonical ensemble
 charge density and potential will be updated during run
 non-spin polarized calculation
 RMM-DIIS sequential band-by-band and
  variant of blocked Davidson during initial phase
 perform sub-space diagonalisation
    before iterative eigenvector-optimisation
 modified Broyden-mixing scheme, WC =      100.0
 initial mixing is a Kerker type mixing with AMIX =  0.4000 and BMIX =      1.0000
 Hartree-type preconditioning will be used
 using additional bands            4
 reciprocal scheme for non local part
 use partial core corrections
 calculate Harris-corrections to forces 
   (improved forces if not selfconsistent)
 use gradient corrections 
 use of overlap-Matrix (Vanderbilt PP)
 Gauss-broadening in eV      SIGMA  =   0.20


--------------------------------------------------------------------------------------------------------


  energy-cutoff  :      400.00
  volume of cell :      942.12
      direct lattice vectors                 reciprocal lattice vectors
     9.706486138  0.000000000  0.000000000     0.103023894 -0.000256361  0.001020494
     0.024438362  9.821067297  0.000000000     0.000000000  0.101821927  0.000542168
    -0.098025753 -0.052623482  9.882966674     0.000000000  0.000000000  0.101184192

  length of vectors
     9.706486138  9.821097703  9.883592897     0.103029267  0.101823371  0.101184192


 
 k-points in units of 2pi/SCALE and weight: read from INCAR                         
   0.02575597  0.02539139  0.02568671       0.250
  -0.02575597  0.02551957  0.02517647       0.250
   0.02575597 -0.02551957  0.02541563       0.250
  -0.02575597 -0.02539139  0.02490538       0.250
 
 k-points in reciprocal lattice and weights: read from INCAR                         
   0.25000000  0.25000000  0.25000000       0.250
  -0.25000000  0.25000000  0.25000000       0.250
   0.25000000 -0.25000000  0.25000000       0.250
  -0.25000000 -0.25000000  0.25000000       0.250
 
 position of ions in fractional coordinates (direct lattice) 
   0.53801624  0.40700021  0.36042218
   0.39464389  0.48081905  0.43855837
   0.55142494  0.56544917  0.44326771
   0.52816252  0.41636969  0.53913299
   0.50259387  0.46760587  0.44458832
 
 position of ions in cartesian coordinates  (Angst):
   5.19686298  3.97820979  3.56204038
   3.79936589  4.69907777  4.33425778
   5.32276551  5.52998811  4.38080004
   5.08392861  4.06082365  5.32823339
   4.84626686  4.56899289  4.39385152
 


--------------------------------------------------------------------------------------------------------


 k-point  1 :   0.2500 0.2500 0.2500  plane waves:   17108
 k-point  2 :  -0.2500 0.2500 0.2500  plane waves:   17115
 k-point  3 :   0.2500-0.2500 0.2500  plane waves:   17110
 k-point  4 :  -0.2500-0.2500 0.2500  plane waves:   17126

 maximum and minimum number of plane-waves per node :      4290     4256

 maximum number of plane-waves:     17126
 maximum index in each direction: 
   IXMAX=   16   IYMAX=   16   IZMAX=   15
   IXMIN=  -16   IYMIN=  -16   IZMIN=  -16


 parallel 3D FFT for wavefunctions:
    minimum data exchange during FFTs selected (reduces bandwidth)
 parallel 3D FFT for charge:
    minimum data exchange during FFTs selected (reduces bandwidth)


 total amount of memory used by VASP MPI-rank0    49558. kBytes
=======================================================================

   base      :      30000. kBytes
   nonl-proj :       2538. kBytes
   fftplans  :       6405. kBytes
   grid      :      10059. kBytes
   one-center:          6. kBytes
   wavefun   :        550. kBytes
 
     INWAV:  cpu time    0.0000: real time    0.0001
 Broyden mixing: mesh for mixing (old mesh)
   NGX = 31   NGY = 33   NGZ = 33
  (NGX  =128   NGY  =128   NGZ  =128)
  gives a total of  33759 points

 initial charge density was supplied:
 charge density of overlapping atoms calculated
 number of electron       8.0000000 magnetization 
 keeping initial charge density in first step


--------------------------------------------------------------------------------------------------------


 Maximum index for augmentation-charges          256 (set IRDMAX)


--------------------------------------------------------------------------------------------------------


 First call to EWALD:  gamma=   0.181
 Maximum number of real-space cells 3x 3x 3
 Maximum number of reciprocal cells 3x 3x 3

    FEWALD:  cpu time    0.0018: real time    0.0018


--------------------------------------- Iteration      1(   1)  ---------------------------------------


    POTLOK:  cpu time    0.1127: real time    0.1227
    SETDIJ:  cpu time    0.0034: real time    0.0040
     EDDAV:  cpu time    0.1466: real time    0.1682
       DOS:  cpu time    0.0004: real time    0.0009
    --------------------------------------------
      LOOP:  cpu time    0.2631: real time    0.2958

 eigenvalue-minimisations  :    96
 total energy-change (2. order) : 0.1769486E+02  (-0.2102198E+03)
 number of electron       8.0000000 magnetization 
 augmentation part        8.0000000 magnetization 

 Free energy of the ion-electron system (eV)
  ---------------------------------------------------
  alpha Z        PSCENC =         0.25713260
  Ewald energy   TEWEN  =       131.52011170
  -Hartree energ DENC   =      -244.24215884
  -exchange      EXHF   =         0.00000000
  -V(xc)+E(xc)   XCENC  =        22.13612858
  PAW double counting   =       117.05815612     -117.66307307
  entropy T*S    EENTRO =        -0.00000000
  eigenvalues    EBANDS =       -88.41319497
  atomic energy  EATOM  =       197.04175453
  Solvation  Ediel_sol  =         0.00000000
  ---------------------------------------------------
  free energy    TOTEN  =        17.69485666 eV

  energy without entropy =       17.69485666  energy(sigma->0) =       17.69485666


--------------------------------------------------------------------------------------------------------




--------------------------------------- Iteration      1(   2)  ---------------------------------------


     EDDAV:  cpu time    0.1320: real time    0.1428
       DOS:  cpu time    0.0002: real time    0.0002
    --------------------------------------------
      LOOP:  cpu time    0.1322: real time    0.1430

 eigenvalue-minimisations  :    80
 total energy-change (2. order) :-0.4113280E+02  (-0.4113280E+02)
 number of electron       8.0000000 magnetization 
 augmentation part        8.0000000 magnetization 

 Free energy of the ion-electron system (eV)
  ---------------------------------------------------
  alpha Z        PSCENC =         0.25713260
  Ewald energy   TEWEN  =       131.52011170
  -Hartree energ DENC   =      -244.24215884
  -exchange      EXHF   =         0.00000000
  -V(xc)+E(xc)   XCENC  =        22.13612858
  PAW double counting   =       117.05815612     -117.66307307
  entropy T*S    EENTRO =        -0.00000000
  eigenvalues    EBANDS =      -129.54599337
  atomic energy  EATOM  =       197.04175453
  Solvation  Ediel_sol  =         0.00000000
  ---------------------------------------------------
  free energy    TOTEN  =       -23.43794174 eV

  energy without entropy =      -23.43794174  energy(sigma->0) =      -23.43794174


--------------------------------------------------------------------------------------------------------




--------------------------------------- Iteration      1(   3)  ---------------------------------------


     EDDAV:  cpu time    0.1087: real time    0.1104
       DOS:  cpu time    0.0002: real time    0.0002
    --------------------------------------------
      LOOP:  cpu time    0.1088: real time    0.1105

 eigenvalue-minimisations  :    64
 total energy-change (2. order) :-0.4246484E+01  (-0.4246484E+01)
 number of electron       8.0000000 magnetization 
 augmentation part        8.0000000 magnetization 

 Free energy of the ion-electron system (eV)
  ---------------------------------------------------
  alpha Z        PSCENC =         0.25713260
  Ewald energy   TEWEN  =       131.52011170
  -Hartree energ DENC   =      -244.24215884
  -exchange      EXHF   =         0.00000000
  -V(xc)+E(xc)   XCENC  =        22.13612858
  PAW double counting   =       117.05815612     -117.66307307
  entropy T*S    EENTRO =        -0.00000000
  eigenvalues    EBANDS =      -133.79247725
  atomic energy  EATOM  =       197.04175453
  Solvation  Ediel_sol  =         0.00000000
  ---------------------------------------------------
  free energy    TOTEN  =       -27.68442562 eV

  energy without entropy =      -27.68442562  energy(sigma->0) =      -27.68442562


--------------------------------------------------------------------------------------------------------




--------------------------------------- Iteration      1(   4)  ---------------------------------------


     EDDAV:  cpu time    0.1791: real time    0.1847
       DOS:  cpu time    0.0002: real time    0.0002
    --------------------------------------------
      LOOP:  cpu time    0.1793: real time    0.1848

 eigenvalue-minimisations  :   128
 total energy-change (2. order) :-0.1633212E+00  (-0.1633212E+00)
 number of electron       8.0000000 magnetization 
 augmentation part        8.0000000 magnetization 

 Free energy of the ion-electron system (eV)
  ---------------------------------------------------
  alpha Z        PSCENC =         0.25713260
  Ewald energy   TEWEN  =       131.52011170
  -Hartree energ DENC   =      -244.24215884
  -exchange      EXHF   =         0.00000000
  -V(xc)+E(xc)   XCENC  =        22.13612858
  PAW double counting   =       117.05815612     -117.66307307
  entropy T*S    EENTRO =        -0.00000000
  eigenvalues    EBANDS =      -133.95579849
  atomic energy  EATOM  =       197.04175453
  Solvation  Ediel_sol  =         0.00000000
  ---------------------------------------------------
  free energy    TOTEN  =       -27.84774686 eV

  energy without entropy =      -27.84774686  energy(sigma->0) =      -27.84774686


--------------------------------------------------------------------------------------------------------




--------------------------------------- Iteration      1(   5)  ---------------------------------------


     EDDAV:  cpu time    0.1330: real time    0.1354
       DOS:  cpu time    0.0002: real time    0.0002
    CHARGE:  cpu time    0.0146: real time    0.0148
    MIXING:  cpu time    0.0033: real time    0.0035
    --------------------------------------------
      LOOP:  cpu time    0.1512: real time    0.1539

 eigenvalue-minimisations  :    88
 total energy-change (2. order) :-0.3891690E-04  (-0.3891691E-04)
 number of electron       8.0000000 magnetization 
 augmentation part        0.2338756 magnetization 

 Broyden mixing:
  rms(total) = 0.91463E+00    rms(broyden)= 0.91440E+00
  rms(prec ) = 0.13058E+01
  weight for this iteration     100.00

 Free energy of the ion-electron system (eV)
  ---------------------------------------------------
  alpha Z        PSCENC =         0.25713260
  Ewald energy   TEWEN  =       131.52011170
  -Hartree energ DENC   =      -244.24215884
  -exchange      EXHF   =         0.00000000
  -V(xc)+E(xc)   XCENC  =        22.13612858
  PAW double counting   =       117.05815612     -117.66307307
  entropy T*S    EENTRO =        -0.00000000
  eigenvalues    EBANDS =      -133.95583740
  atomic energy  EATOM  =       197.04175453
  Solvation  Ediel_sol  =         0.00000000
  ---------------------------------------------------
  free energy    TOTEN  =       -27.84778577 eV

  energy without entropy =      -27.84778577  energy(sigma->0) =      -27.84778577


--------------------------------------------------------------------------------------------------------




--------------------------------------- Iteration      1(   6)  ---------------------------------------


    POTLOK:  cpu time    0.0990: real time    0.1004
    SETDIJ:  cpu time    0.0019: real time    0.0019
    EDDIAG:  cpu time    0.0309: real time    0.0397
  RMM-DIIS:  cpu time    0.1112: real time    0.1129
    ORTHCH:  cpu time    0.0018: real time    0.0018
       DOS:  cpu time    0.0002: real time    0.0002
    CHARGE:  cpu time    0.0132: real time    0.0134
    MIXING:  cpu time    0.0039: real time    0.0055
    --------------------------------------------
      LOOP:  cpu time    0.2622: real time    0.2758

 eigenvalue-minimisations  :    64
 total energy-change (2. order) : 0.3171751E+01  (-0.5958626E+00)
 number of electron       8.0000000 magnetization 
 augmentation part        0.2060669 magnetization 

 Broyden mixing:
  rms(total) = 0.44804E+00    rms(broyden)= 0.44795E+00
  rms(prec ) = 0.58735E+00
  weight for this iteration     100.00

 eigenvalues of (default mixing * dielectric matrix)
  average eigenvalue GAMMA=   1.3213
  1.3213

 Free energy of the ion-electron system (eV)
  ---------------------------------------------------
  alpha Z        PSCENC =         0.25713260
  Ewald energy   TEWEN  =       131.52011170
  -Hartree energ DENC   =      -264.89736853
  -exchange      EXHF   =         0.00000000
  -V(xc)+E(xc)   XCENC  =        23.38940262
  PAW double counting   =       246.34505023     -247.13788596
  entropy T*S    EENTRO =        -0.00000000
  eigenvalues    EBANDS =      -111.19423174
  atomic energy  EATOM  =       197.04175453
  Solvation  Ediel_sol  =         0.00000000
  ---------------------------------------------------
  free energy    TOTEN  =       -24.67603454 eV

  energy without entropy =      -24.67603454  energy(sigma->0) =      -24.67603454


--------------------------------------------------------------------------------------------------------




--------------------------------------- Iteration      1(   7)  ---------------------------------------


    POTLOK:  cpu time    0.1000: real time    0.1016
    SETDIJ:  cpu time    0.0020: real time    0.0020
    EDDIAG:  cpu time    0.0259: real time    0.0266
  RMM-DIIS:  cpu time    0.1078: real time    0.1097
    ORTHCH:  cpu time    0.0023: real time    0.0023
       DOS:  cpu time    0.0002: real time    0.0002
    CHARGE:  cpu time    0.0120: real time    0.0122
    MIXING:  cpu time    0.0037: real time    0.0037
    --------------------------------------------
      LOOP:  cpu time    0.2539: real time    0.2584

 eigenvalue-minimisations  :    64
 total energy-change (2. order) : 0.5442554E+00  (-0.1456336E+00)
 number of electron       8.0000000 magnetization 
 augmentation part        0.1945699 magnetization 

 Broyden mixing:
  rms(total) = 0.23575E+00    rms(broyden)= 0.23569E+00
  rms(prec ) = 0.28523E+00
  weight for this iteration     100.00

 eigenvalues of (default mixing * dielectric matrix)
  average eigenvalue GAMMA=   1.8490
  1.4847  2.2132

 Free energy of the ion-electron system (eV)
  ---------------------------------------------------
  alpha Z        PSCENC =         0.25713260
  Ewald energy   TEWEN  =       131.52011170
  -Hartree energ DENC   =      -277.48589957
  -exchange      EXHF   =         0.00000000
  -V(xc)+E(xc)   XCENC  =        24.30581197
  PAW double counting   =       387.32916722     -388.16884083
  entropy T*S    EENTRO =        -0.00000000
  eigenvalues    EBANDS =       -98.93101671
  atomic energy  EATOM  =       197.04175453
  Solvation  Ediel_sol  =         0.00000000
  ---------------------------------------------------
  free energy    TOTEN  =       -24.13177910 eV

  energy without entropy =      -24.13177910  energy(sigma->0) =      -24.13177910


--------------------------------------------------------------------------------------------------------




--------------------------------------- Iteration      1(   8)  ---------------------------------------


    POTLOK:  cpu time    0.0991: real time    0.1005
    SETDIJ:  cpu time    0.0019: real time    0.0020
    EDDIAG:  cpu time    0.0255: real time    0.0259
  RMM-DIIS:  cpu time    0.1086: real time    0.1113
    ORTHCH:  cpu time    0.0020: real time    0.0020
       DOS:  cpu time    0.0002: real time    0.0002
    CHARGE:  cpu time    0.0120: real time    0.0122
    MIXING:  cpu time    0.0037: real time    0.0037
    --------------------------------------------
      LOOP:  cpu time    0.2530: real time    0.2579

 eigenvalue-minimisations  :    64
 total energy-change (2. order) : 0.1500772E+00  (-0.1625164E-01)
 number of electron       8.0000000 magnetization 
 augmentation part        0.1931369 magnetization 

 Broyden mixing:
  rms(total) = 0.22282E-01    rms(broyden)= 0.22257E-01
  rms(prec ) = 0.54185E-01
  weight for this iteration     100.00

 eigenvalues of (default mixing * dielectric matrix)
  average eigenvalue GAMMA=   1.5628
  2.2487  1.0047  1.4349

 Free energy of the ion-electron system (eV)
  ---------------------------------------------------
  alpha Z        PSCENC =         0.25713260
  Ewald energy   TEWEN  =       131.52011170
  -Hartree energ DENC   =      -282.91121706
  -exchange      EXHF   =         0.00000000
  -V(xc)+E(xc)   XCENC  =        24.84390458
  PAW double counting   =       506.89803212     -507.70449263
  entropy T*S    EENTRO =        -0.00000000
  eigenvalues    EBANDS =       -93.92692774
  atomic energy  EATOM  =       197.04175453
  Solvation  Ediel_sol  =         0.00000000
  ---------------------------------------------------
  free energy    TOTEN  =       -23.98170190 eV

  energy without entropy =      -23.98170190  energy(sigma->0) =      -23.98170190


--------------------------------------------------------------------------------------------------------




--------------------------------------- Iteration      1(   9)  ---------------------------------------


    POTLOK:  cpu time    0.0987: real time    0.1004
    SETDIJ:  cpu time    0.0022: real time    0.0022
    EDDIAG:  cpu time    0.0262: real time    0.0266
  RMM-DIIS:  cpu time    0.1097: real time    0.1116
    ORTHCH:  cpu time    0.0022: real time    0.0022
       DOS:  cpu time    0.0002: real time    0.0002
    CHARGE:  cpu time    0.0119: real time    0.0121
    MIXING:  cpu time    0.0040: real time    0.0040
    --------------------------------------------
      LOOP:  cpu time    0.2550: real time    0.2594

 eigenvalue-minimisations  :    64
 total energy-change (2. order) : 0.5843177E-02  (-0.1168506E-02)
 number of electron       8.0000000 magnetization 
 augmentation part        0.1925251 magnetization 

 Broyden mixing:
  rms(total) = 0.20177E-01    rms(broyden)= 0.20173E-01
  rms(prec ) = 0.41780E-01
  weight for this iteration     100.00

 eigenvalues of (default mixing * dielectric matrix)
  average eigenvalue GAMMA=   2.1224
  3.2060  2.8809  1.0015  1.4013

 Free energy of the ion-electron system (eV)
  ---------------------------------------------------
  alpha Z        PSCENC =         0.25713260
  Ewald energy   TEWEN  =       131.52011170
  -Hartree energ DENC   =      -284.22481433
  -exchange      EXHF   =         0.00000000
  -V(xc)+E(xc)   XCENC  =        24.91830025
  PAW double counting   =       511.75596261     -512.56494940
  entropy T*S    EENTRO =        -0.00000000
  eigenvalues    EBANDS =       -92.67935668
  atomic energy  EATOM  =       197.04175453
  Solvation  Ediel_sol  =         0.00000000
  ---------------------------------------------------
  free energy    TOTEN  =       -23.97585872 eV

  energy without entropy =      -23.97585872  energy(sigma->0) =      -23.97585872


--------------------------------------------------------------------------------------------------------




--------------------------------------- Iteration      1(  10)  ---------------------------------------


    POTLOK:  cpu time    0.0947: real time    0.0961
    SETDIJ:  cpu time    0.0022: real time    0.0023
    EDDIAG:  cpu time    0.0254: real time    0.0257
  RMM-DIIS:  cpu time    0.1086: real time    0.1107
    ORTHCH:  cpu time    0.0019: real time    0.0019
       DOS:  cpu time    0.0002: real time    0.0002
    CHARGE:  cpu time    0.0120: real time    0.0123
    MIXING:  cpu time    0.0050: real time    0.0065
    --------------------------------------------
      LOOP:  cpu time    0.2499: real time    0.2557

 eigenvalue-minimisations  :    64
 total energy-change (2. order) : 0.5614079E-02  (-0.2381959E-02)
 number of electron       8.0000000 magnetization 
 augmentation part        0.1914672 magnetization 

 Broyden mixing:
  rms(total) = 0.29049E-01    rms(broyden)= 0.29048E-01
  rms(prec ) = 0.36652E-01
  weight for this iteration     100.00

 eigenvalues of (default mixing * dielectric matrix)
  average eigenvalue GAMMA=   1.7763
  3.0763  2.4826  1.1832  1.1832  0.9564

 Free energy of the ion-electron system (eV)
  ---------------------------------------------------
  alpha Z        PSCENC =         0.25713260
  Ewald energy   TEWEN  =       131.52011170
  -Hartree energ DENC   =      -286.44581999
  -exchange      EXHF   =         0.00000000
  -V(xc)+E(xc)   XCENC  =        24.98650139
  PAW double counting   =       493.94745254     -494.76020817
  entropy T*S    EENTRO =        -0.00000000
  eigenvalues    EBANDS =       -90.51716925
  atomic energy  EATOM  =       197.04175453
  Solvation  Ediel_sol  =         0.00000000
  ---------------------------------------------------
  free energy    TOTEN  =       -23.97024464 eV

  energy without entropy =      -23.97024464  energy(sigma->0) =      -23.97024464


--------------------------------------------------------------------------------------------------------




--------------------------------------- Iteration      1(  11)  ---------------------------------------


    POTLOK:  cpu time    0.0947: real time    0.0958
    SETDIJ:  cpu time    0.0019: real time    0.0019
    EDDIAG:  cpu time    0.0254: real time    0.0258
  RMM-DIIS:  cpu time    0.1078: real time    0.1095
    ORTHCH:  cpu time    0.0013: real time    0.0013
       DOS:  cpu time    0.0002: real time    0.0002
    CHARGE:  cpu time    0.0117: real time    0.0119
    MIXING:  cpu time    0.0043: real time    0.0044
    --------------------------------------------
      LOOP:  cpu time    0.2473: real time    0.2508

 eigenvalue-minimisations  :    64
 total energy-change (2. order) :-0.2573234E-03  (-0.5630058E-03)
 number of electron       8.0000000 magnetization 
 augmentation part        0.1917507 magnetization 

 Broyden mixing:
  rms(total) = 0.54264E-02    rms(broyden)= 0.54237E-02
  rms(prec ) = 0.12389E-01
  weight for this iteration     100.00

 eigenvalues of (default mixing * dielectric matrix)
  average eigenvalue GAMMA=   2.2849
  4.7898  3.1591  2.4371  1.3337  0.9950  0.9950

 Free energy of the ion-electron system (eV)
  ---------------------------------------------------
  alpha Z        PSCENC =         0.25713260
  Ewald energy   TEWEN  =       131.52011170
  -Hartree energ DENC   =      -286.35816580
  -exchange      EXHF   =         0.00000000
  -V(xc)+E(xc)   XCENC  =        25.00046112
  PAW double counting   =       503.45901111     -504.26502290
  entropy T*S    EENTRO =        -0.00000000
  eigenvalues    EBANDS =       -90.62578432
  atomic energy  EATOM  =       197.04175453
  Solvation  Ediel_sol  =         0.00000000
  ---------------------------------------------------
  free energy    TOTEN  =       -23.97050196 eV

  energy without entropy =      -23.97050196  energy(sigma->0) =      -23.97050196


--------------------------------------------------------------------------------------------------------




--------------------------------------- Iteration      1(  12)  ---------------------------------------


    POTLOK:  cpu time    0.0889: real time    0.0902
    SETDIJ:  cpu time    0.0023: real time    0.0024
    EDDIAG:  cpu time    0.0251: real time    0.0254
  RMM-DIIS:  cpu time    0.1466: real time    0.1493
    ORTHCH:  cpu time    0.0017: real time    0.0017
       DOS:  cpu time    0.0002: real time    0.0002
    CHARGE:  cpu time    0.0117: real time    0.0120
    MIXING:  cpu time    0.0044: real time    0.0044
    --------------------------------------------
      LOOP:  cpu time    0.2810: real time    0.2856

 eigenvalue-minimisations  :    64
 total energy-change (2. order) :-0.1046013E-01  (-0.5602748E-03)
 number of electron       8.0000000 magnetization 
 augmentation part        0.1920820 magnetization 

 Broyden mixing:
  rms(total) = 0.14077E-01    rms(broyden)= 0.14075E-01
  rms(prec ) = 0.18284E-01
  weight for this iteration     100.00

 eigenvalues of (default mixing * dielectric matrix)
  average eigenvalue GAMMA=   2.0233
  4.8249  2.9401  2.4505  1.2899  0.9819  0.9819  0.6936

 Free energy of the ion-electron system (eV)
  ---------------------------------------------------
  alpha Z        PSCENC =         0.25713260
  Ewald energy   TEWEN  =       131.52011170
  -Hartree energ DENC   =      -286.50613946
  -exchange      EXHF   =         0.00000000
  -V(xc)+E(xc)   XCENC  =        24.99278913
  PAW double counting   =       501.65940879     -502.46271108
  entropy T*S    EENTRO =        -0.00000000
  eigenvalues    EBANDS =       -90.48330831
  atomic energy  EATOM  =       197.04175453
  Solvation  Ediel_sol  =         0.00000000
  ---------------------------------------------------
  free energy    TOTEN  =       -23.98096209 eV

  energy without entropy =      -23.98096209  energy(sigma->0) =      -23.98096209


--------------------------------------------------------------------------------------------------------




--------------------------------------- Iteration      1(  13)  ---------------------------------------


    POTLOK:  cpu time    0.0887: real time    0.0902
    SETDIJ:  cpu time    0.0022: real time    0.0022
    EDDIAG:  cpu time    0.0258: real time    0.0262
  RMM-DIIS:  cpu time    0.1071: real time    0.1091
    ORTHCH:  cpu time    0.0016: real time    0.0016
       DOS:  cpu time    0.0002: real time    0.0002
    CHARGE:  cpu time    0.0117: real time    0.0118
    MIXING:  cpu time    0.0045: real time    0.0046
    --------------------------------------------
      LOOP:  cpu time    0.2418: real time    0.2460

 eigenvalue-minimisations  :    64
 total energy-change (2. order) :-0.2002438E-03  (-0.7171866E-04)
 number of electron       8.0000000 magnetization 
 augmentation part        0.1918822 magnetization 

 Broyden mixing:
  rms(total) = 0.74798E-02    rms(broyden)= 0.74798E-02
  rms(prec ) = 0.96407E-02
  weight for this iteration     100.00

 eigenvalues of (default mixing * dielectric matrix)
  average eigenvalue GAMMA=   2.3735
  5.9687  3.8475  2.5649  2.2744  1.2322  1.2322  1.0000  0.8677

 Free energy of the ion-electron system (eV)
  ---------------------------------------------------
  alpha Z        PSCENC =         0.25713260
  Ewald energy   TEWEN  =       131.52011170
  -Hartree energ DENC   =      -286.69687668
  -exchange      EXHF   =         0.00000000
  -V(xc)+E(xc)   XCENC  =        24.99904659
  PAW double counting   =       501.52368464     -502.32934033
  entropy T*S    EENTRO =        -0.00000000
  eigenvalues    EBANDS =       -90.29667540
  atomic energy  EATOM  =       197.04175453
  Solvation  Ediel_sol  =         0.00000000
  ---------------------------------------------------
  free energy    TOTEN  =       -23.98116234 eV

  energy without entropy =      -23.98116234  energy(sigma->0) =      -23.98116234


--------------------------------------------------------------------------------------------------------




--------------------------------------- Iteration      1(  14)  ---------------------------------------


    POTLOK:  cpu time    0.0879: real time    0.0891
    SETDIJ:  cpu time    0.0019: real time    0.0020
    EDDIAG:  cpu time    0.0251: real time    0.0255
  RMM-DIIS:  cpu time    0.1081: real time    0.1098
    ORTHCH:  cpu time    0.0014: real time    0.0014
       DOS:  cpu time    0.0002: real time    0.0002
    CHARGE:  cpu time    0.0119: real time    0.0121
    MIXING:  cpu time    0.0048: real time    0.0049
    --------------------------------------------
      LOOP:  cpu time    0.2413: real time    0.2449

 eigenvalue-minimisations  :    64
 total energy-change (2. order) :-0.2772584E-02  (-0.2775693E-03)
 number of electron       8.0000000 magnetization 
 augmentation part        0.1915932 magnetization 

 Broyden mixing:
  rms(total) = 0.55099E-02    rms(broyden)= 0.55077E-02
  rms(prec ) = 0.72370E-02
  weight for this iteration     100.00

 eigenvalues of (default mixing * dielectric matrix)
  average eigenvalue GAMMA=   2.3095
  6.4728  4.1728  2.4457  2.4457  1.1928  1.1928  1.0012  0.9308  0.9308

 Free energy of the ion-electron system (eV)
  ---------------------------------------------------
  alpha Z        PSCENC =         0.25713260
  Ewald energy   TEWEN  =       131.52011170
  -Hartree energ DENC   =      -286.80023512
  -exchange      EXHF   =         0.00000000
  -V(xc)+E(xc)   XCENC  =        24.99301926
  PAW double counting   =       500.24805431     -501.05662368
  entropy T*S    EENTRO =        -0.00000000
  eigenvalues    EBANDS =       -90.18714852
  atomic energy  EATOM  =       197.04175453
  Solvation  Ediel_sol  =         0.00000000
  ---------------------------------------------------
  free energy    TOTEN  =       -23.98393492 eV

  energy without entropy =      -23.98393492  energy(sigma->0) =      -23.98393492


--------------------------------------------------------------------------------------------------------




--------------------------------------- Iteration      1(  15)  ---------------------------------------


    POTLOK:  cpu time    0.0879: real time    0.0890
    SETDIJ:  cpu time    0.0019: real time    0.0019
    EDDIAG:  cpu time    0.0254: real time    0.0258
  RMM-DIIS:  cpu time    0.1087: real time    0.1105
    ORTHCH:  cpu time    0.0015: real time    0.0015
       DOS:  cpu time    0.0002: real time    0.0002
    CHARGE:  cpu time    0.0118: real time    0.0120
    MIXING:  cpu time    0.0050: real time    0.0050
    --------------------------------------------
      LOOP:  cpu time    0.2424: real time    0.2460

 eigenvalue-minimisations  :    64
 total energy-change (2. order) :-0.1676666E-03  (-0.2612450E-04)
 number of electron       8.0000000 magnetization 
 augmentation part        0.1916346 magnetization 

 Broyden mixing:
  rms(total) = 0.18022E-02    rms(broyden)= 0.18021E-02
  rms(prec ) = 0.22828E-02
  weight for this iteration     100.00

 eigenvalues of (default mixing * dielectric matrix)
  average eigenvalue GAMMA=   2.5563
  7.4031  4.9648  3.1822  2.4963  2.0329  1.3112  1.3112  0.9865  0.9865  0.8879

 Free energy of the ion-electron system (eV)
  ---------------------------------------------------
  alpha Z        PSCENC =         0.25713260
  Ewald energy   TEWEN  =       131.52011170
  -Hartree energ DENC   =      -286.67177911
  -exchange      EXHF   =         0.00000000
  -V(xc)+E(xc)   XCENC  =        24.98695974
  PAW double counting   =       500.30475629     -501.11178738
  entropy T*S    EENTRO =        -0.00000000
  eigenvalues    EBANDS =       -90.31125096
  atomic energy  EATOM  =       197.04175453
  Solvation  Ediel_sol  =         0.00000000
  ---------------------------------------------------
  free energy    TOTEN  =       -23.98410259 eV

  energy without entropy =      -23.98410259  energy(sigma->0) =      -23.98410259


--------------------------------------------------------------------------------------------------------




--------------------------------------- Iteration      1(  16)  ---------------------------------------


    POTLOK:  cpu time    0.0896: real time    0.0906
    SETDIJ:  cpu time    0.0019: real time    0.0019
    EDDIAG:  cpu time    0.0253: real time    0.0258
  RMM-DIIS:  cpu time    0.1086: real time    0.1107
    ORTHCH:  cpu time    0.0017: real time    0.0017
       DOS:  cpu time    0.0002: real time    0.0002
    CHARGE:  cpu time    0.0119: real time    0.0121
    MIXING:  cpu time    0.0051: real time    0.0052
    --------------------------------------------
      LOOP:  cpu time    0.2444: real time    0.2481

 eigenvalue-minimisations  :    64
 total energy-change (2. order) :-0.2141687E-03  (-0.2247180E-04)
 number of electron       8.0000000 magnetization 
 augmentation part        0.1917388 magnetization 

 Broyden mixing:
  rms(total) = 0.17770E-02    rms(broyden)= 0.17762E-02
  rms(prec ) = 0.23873E-02
  weight for this iteration     100.00

 eigenvalues of (default mixing * dielectric matrix)
  average eigenvalue GAMMA=   2.4685
  7.6188  4.7916  3.5010  2.3594  2.3594  1.2227  1.2227  0.8934  0.9769  1.1035
  1.1035

 Free energy of the ion-electron system (eV)
  ---------------------------------------------------
  alpha Z        PSCENC =         0.25713260
  Ewald energy   TEWEN  =       131.52011170
  -Hartree energ DENC   =      -286.65108891
  -exchange      EXHF   =         0.00000000
  -V(xc)+E(xc)   XCENC  =        24.98738811
  PAW double counting   =       500.54932449     -501.35553491
  entropy T*S    EENTRO =        -0.00000000
  eigenvalues    EBANDS =       -90.33340437
  atomic energy  EATOM  =       197.04175453
  Solvation  Ediel_sol  =         0.00000000
  ---------------------------------------------------
  free energy    TOTEN  =       -23.98431676 eV

  energy without entropy =      -23.98431676  energy(sigma->0) =      -23.98431676


--------------------------------------------------------------------------------------------------------




--------------------------------------- Iteration      1(  17)  ---------------------------------------


    POTLOK:  cpu time    0.0890: real time    0.0910
    SETDIJ:  cpu time    0.0022: real time    0.0022
    EDDIAG:  cpu time    0.0253: real time    0.0256
  RMM-DIIS:  cpu time    0.1095: real time    0.1108
    ORTHCH:  cpu time    0.0020: real time    0.0020
       DOS:  cpu time    0.0002: real time    0.0002
    CHARGE:  cpu time    0.0118: real time    0.0119
    MIXING:  cpu time    0.0054: real time    0.0055
    --------------------------------------------
      LOOP:  cpu time    0.2453: real time    0.2492

 eigenvalue-minimisations  :    64
 total energy-change (2. order) :-0.5296430E-05  (-0.2833437E-05)
 number of electron       8.0000000 magnetization 
 augmentation part        0.1917036 magnetization 

 Broyden mixing:
  rms(total) = 0.64952E-03    rms(broyden)= 0.64951E-03
  rms(prec ) = 0.81995E-03
  weight for this iteration     100.00

 eigenvalues of (default mixing * dielectric matrix)
  average eigenvalue GAMMA=   2.5511
  8.1820  5.0361  3.9289  2.6782  2.4204  1.8491  1.3413  1.3413  0.9954  0.9855
  0.9855  0.8701

 Free energy of the ion-electron system (eV)
  ---------------------------------------------------
  alpha Z        PSCENC =         0.25713260
  Ewald energy   TEWEN  =       131.52011170
  -Hartree energ DENC   =      -286.69555079
  -exchange      EXHF   =         0.00000000
  -V(xc)+E(xc)   XCENC  =        24.98954655
  PAW double counting   =       500.57078740     -501.37743422
  entropy T*S    EENTRO =        -0.00000000
  eigenvalues    EBANDS =       -90.29066983
  atomic energy  EATOM  =       197.04175453
  Solvation  Ediel_sol  =         0.00000000
  ---------------------------------------------------
  free energy    TOTEN  =       -23.98432205 eV

  energy without entropy =      -23.98432205  energy(sigma->0) =      -23.98432205


--------------------------------------------------------------------------------------------------------




--------------------------------------- Iteration      1(  18)  ---------------------------------------


    POTLOK:  cpu time    0.0926: real time    0.0940
    SETDIJ:  cpu time    0.0021: real time    0.0021
    EDDIAG:  cpu time    0.0254: real time    0.0257
  RMM-DIIS:  cpu time    0.1084: real time    0.1102
    ORTHCH:  cpu time    0.0013: real time    0.0014
       DOS:  cpu time    0.0002: real time    0.0002
    CHARGE:  cpu time    0.0116: real time    0.0118
    MIXING:  cpu time    0.0057: real time    0.0057
    --------------------------------------------
      LOOP:  cpu time    0.2473: real time    0.2512

 eigenvalue-minimisations  :    64
 total energy-change (2. order) :-0.1828978E-04  (-0.1524195E-05)
 number of electron       8.0000000 magnetization 
 augmentation part        0.1916727 magnetization 

 Broyden mixing:
  rms(total) = 0.19542E-03    rms(broyden)= 0.19495E-03
  rms(prec ) = 0.27092E-03
  weight for this iteration     100.00

 eigenvalues of (default mixing * dielectric matrix)
  average eigenvalue GAMMA=   2.4533
  8.1947  5.1773  3.8153  2.6954  2.4783  1.9650  1.3125  1.3125  0.8811  0.9814
  0.9814  1.0491  1.0491

 Free energy of the ion-electron system (eV)
  ---------------------------------------------------
  alpha Z        PSCENC =         0.25713260
  Ewald energy   TEWEN  =       131.52011170
  -Hartree energ DENC   =      -286.70587155
  -exchange      EXHF   =         0.00000000
  -V(xc)+E(xc)   XCENC  =        24.98973955
  PAW double counting   =       500.41833890     -501.22519278
  entropy T*S    EENTRO =        -0.00000000
  eigenvalues    EBANDS =       -90.28035329
  atomic energy  EATOM  =       197.04175453
  Solvation  Ediel_sol  =         0.00000000
  ---------------------------------------------------
  free energy    TOTEN  =       -23.98434034 eV

  energy without entropy =      -23.98434034  energy(sigma->0) =      -23.98434034


--------------------------------------------------------------------------------------------------------




--------------------------------------- Iteration      1(  19)  ---------------------------------------


    POTLOK:  cpu time    0.0924: real time    0.0943
    SETDIJ:  cpu time    0.0019: real time    0.0019
    EDDIAG:  cpu time    0.0251: real time    0.0254
  RMM-DIIS:  cpu time    0.0885: real time    0.0901
    ORTHCH:  cpu time    0.0014: real time    0.0014
       DOS:  cpu time    0.0002: real time    0.0003
    CHARGE:  cpu time    0.0120: real time    0.0121
    MIXING:  cpu time    0.0056: real time    0.0056
    --------------------------------------------
      LOOP:  cpu time    0.2271: real time    0.2311

 eigenvalue-minimisations  :    48
 total energy-change (2. order) :-0.1613864E-05  (-0.3099649E-07)
 number of electron       8.0000000 magnetization 
 augmentation part        0.1916725 magnetization 

 Broyden mixing:
  rms(total) = 0.15841E-03    rms(broyden)= 0.15837E-03
  rms(prec ) = 0.21616E-03
  weight for this iteration     100.00

 eigenvalues of (default mixing * dielectric matrix)
  average eigenvalue GAMMA=   2.5064
  8.2693  5.3239  4.0920  3.2443  2.5527  2.2320  1.8005  1.3619  1.3619  1.0427
  1.0427  0.8738  0.9462  0.9462

 Free energy of the ion-electron system (eV)
  ---------------------------------------------------
  alpha Z        PSCENC =         0.25713260
  Ewald energy   TEWEN  =       131.52011170
  -Hartree energ DENC   =      -286.70180580
  -exchange      EXHF   =         0.00000000
  -V(xc)+E(xc)   XCENC  =        24.98950408
  PAW double counting   =       500.42046498     -501.22728814
  entropy T*S    EENTRO =        -0.00000000
  eigenvalues    EBANDS =       -90.28421592
  atomic energy  EATOM  =       197.04175453
  Solvation  Ediel_sol  =         0.00000000
  ---------------------------------------------------
  free energy    TOTEN  =       -23.98434196 eV

  energy without entropy =      -23.98434196  energy(sigma->0) =      -23.98434196


--------------------------------------------------------------------------------------------------------




--------------------------------------- Iteration      1(  20)  ---------------------------------------


    POTLOK:  cpu time    0.0960: real time    0.0970
    SETDIJ:  cpu time    0.0019: real time    0.0019
    EDDIAG:  cpu time    0.0248: real time    0.0251
  RMM-DIIS:  cpu time    0.0874: real time    0.0892
    ORTHCH:  cpu time    0.0015: real time    0.0015
       DOS:  cpu time    0.0002: real time    0.0002
    CHARGE:  cpu time    0.0119: real time    0.0120
    MIXING:  cpu time    0.0059: real time    0.0060
    --------------------------------------------
      LOOP:  cpu time    0.2297: real time    0.2330

 eigenvalue-minimisations  :    48
 total energy-change (2. order) :-0.1791457E-05  (-0.4492930E-07)
 number of electron       8.0000000 magnetization 
 augmentation part        0.1916770 magnetization 

 Broyden mixing:
  rms(total) = 0.21880E-04    rms(broyden)= 0.21869E-04
  rms(prec ) = 0.26039E-04
  weight for this iteration     100.00

 eigenvalues of (default mixing * dielectric matrix)
  average eigenvalue GAMMA=   2.4388
  8.2454  5.4910  3.7526  3.7526  2.4485  2.4485  1.8549  1.3509  1.3509  1.0503
  1.0503  0.8614  0.9490  0.9490  1.0269

 Free energy of the ion-electron system (eV)
  ---------------------------------------------------
  alpha Z        PSCENC =         0.25713260
  Ewald energy   TEWEN  =       131.52011170
  -Hartree energ DENC   =      -286.69699170
  -exchange      EXHF   =         0.00000000
  -V(xc)+E(xc)   XCENC  =        24.98925771
  PAW double counting   =       500.43530716     -501.24206709
  entropy T*S    EENTRO =        -0.00000000
  eigenvalues    EBANDS =       -90.28884867
  atomic energy  EATOM  =       197.04175453
  Solvation  Ediel_sol  =         0.00000000
  ---------------------------------------------------
  free energy    TOTEN  =       -23.98434375 eV

  energy without entropy =      -23.98434375  energy(sigma->0) =      -23.98434375


--------------------------------------------------------------------------------------------------------




--------------------------------------- Iteration      1(  21)  ---------------------------------------


    POTLOK:  cpu time    0.0964: real time    0.0974
    SETDIJ:  cpu time    0.0024: real time    0.0024
    EDDIAG:  cpu time    0.0252: real time    0.0257
  RMM-DIIS:  cpu time    0.0850: real time    0.0893
    ORTHCH:  cpu time    0.0013: real time    0.0013
       DOS:  cpu time    0.0002: real time    0.0002
    --------------------------------------------
      LOOP:  cpu time    0.2105: real time    0.2162

 eigenvalue-minimisations  :    44
 total energy-change (2. order) :-0.1910497E-06  (-0.6346951E-08)
 number of electron       8.0000000 magnetization 
 augmentation part        0.1916770 magnetization 

 Free energy of the ion-electron system (eV)
  ---------------------------------------------------
  alpha Z        PSCENC =         0.25713260
  Ewald energy   TEWEN  =       131.52011170
  -Hartree energ DENC   =      -286.69660192
  -exchange      EXHF   =         0.00000000
  -V(xc)+E(xc)   XCENC  =        24.98923900
  PAW double counting   =       500.43639984     -501.24315760
  entropy T*S    EENTRO =        -0.00000000
  eigenvalues    EBANDS =       -90.28922209
  atomic energy  EATOM  =       197.04175453
  Solvation  Ediel_sol  =         0.00000000
  ---------------------------------------------------
  free energy    TOTEN  =       -23.98434394 eV

  energy without entropy =      -23.98434394  energy(sigma->0) =      -23.98434394


--------------------------------------------------------------------------------------------------------




 average (electrostatic) potential at core
  the test charge radii are     0.5201  0.6991
  (the norm of the test charge is              1.0000)
       1 -41.6037       2 -41.7936       3 -41.6476       4 -41.5004       5 -57.8199
 
 
 
 E-fermi :  -8.3741     XC(G=0):  -0.7279     alpha+bet : -0.2236


 k-point     1 :       0.2500    0.2500    0.2500
  band No.  band energies     occupation 
      1     -17.0477      2.00000
      2      -9.4367      2.00000
      3      -9.3656      2.00000
      4      -9.2945      2.00000
      5      -0.2791      0.00000
      6       0.6095      0.00000
      7       0.7053      0.00000
      8       0.7260      0.00000

 k-point     2 :      -0.2500    0.2500    0.2500
  band No.  band energies     occupation 
      1     -17.0477      2.00000
      2      -9.4366      2.00000
      3      -9.3657      2.00000
      4      -9.2946      2.00000
      5      -0.2808      0.00000
      6       0.6076      0.00000
      7       0.7042      0.00000
      8       0.7348      0.00000

 k-point     3 :       0.2500   -0.2500    0.2500
  band No.  band energies     occupation 
      1     -17.0477      2.00000
      2      -9.4366      2.00000
      3      -9.3657      2.00000
      4      -9.2945      2.00000
      5      -0.2795      0.00000
      6       0.6057      0.00000
      7       0.7035      0.00000
      8       0.7310      0.00000

 k-point     4 :      -0.2500   -0.2500    0.2500
  band No.  band energies     occupation 
      1     -17.0477      2.00000
      2      -9.4367      2.00000
      3      -9.3657      2.00000
      4      -9.2946      2.00000
      5      -0.2824      0.00000
      6       0.6159      0.00000
      7       0.7145      0.00000
      8       0.7316      0.00000


--------------------------------------------------------------------------------------------------------


 soft charge-density along one line, spin component           1
         0         1         2         3         4         5         6         7         8         9
 total charge-density along one line
 
 pseudopotential strength for first ion, spin component:           1
 -2.342  -4.035  -0.001  -0.001   0.001
 -4.035  -6.868  -0.003  -0.004   0.002
 -0.001  -0.003  -0.336   0.002  -0.001
 -0.001  -0.004   0.002  -0.335  -0.001
  0.001   0.002  -0.001  -0.001  -0.337
 total augmentation occupancy for first ion, spin component:           1
  3.608  -0.646   0.247   0.348  -0.147
 -0.646   0.130  -0.045  -0.064   0.027
  0.247  -0.045   0.024   0.020  -0.008
  0.348  -0.064   0.020   0.038  -0.012
 -0.147   0.027  -0.008  -0.012   0.015


------------------------ aborting loop because EDIFF is reached ----------------------------------------


    CHARGE:  cpu time    0.0114: real time    0.0119
    FORLOC:  cpu time    0.0103: real time    0.0116
    FORNL :  cpu time    0.0204: real time    0.0209
    STRESS:  cpu time    0.1339: real time    0.1353
    FORCOR:  cpu time    0.0967: real time    0.0975
    FORHAR:  cpu time    0.0306: real time    0.0310
    MIXING:  cpu time    0.0061: real time    0.0061
    OFIELD:  cpu time    0.0000: real time    0.0000

  FORCE on cell =-STRESS in cart. coord.  units (eV):
  Direction    XX          YY          ZZ          XY          YZ          ZX
  --------------------------------------------------------------------------------------
  Alpha Z     0.25713     0.25713     0.25713
  Ewald      45.80446    43.57455    42.14106    -0.14625     0.34597    -0.94404
  Hartree    96.54602    95.41385    94.73805    -0.03443    -0.08124    -0.32577
  E(xc)     -27.48350   -27.47713   -27.47495    -0.00129    -0.00008    -0.00376
  Local    -200.33112  -197.51944  -195.74173     0.15989    -0.09862     1.10301
  n-local   -16.53001   -16.44867   -16.40524    -0.00503    -0.01091    -0.00119
  augment     0.09819     0.10518     0.10887     0.00009    -0.00170     0.00127
  Kinetic   103.02993   102.68875   102.56624     0.07133    -0.01167     0.19652
  Fock        0.00000     0.00000     0.00000     0.00000     0.00000     0.00000
  -------------------------------------------------------------------------------------
  Total       1.39110     0.59422     0.18942     0.04430     0.14175     0.02603
  in kB       2.36571     1.01054     0.32213     0.07534     0.24106     0.04426
  external pressure =        1.23 kB  Pullay stress =        0.00 kB

  kinetic pressure (ideal gas correction) =      0.00 kB
  total pressure  =      1.23 kB
  Total+kin.     2.366       1.011       0.322       0.075       0.241       0.044

 VOLUME and BASIS-vectors are now :
 -----------------------------------------------------------------------------
  energy-cutoff  :      400.00
  volume of cell :      942.12
      direct lattice vectors                 reciprocal lattice vectors
     9.706486138  0.000000000  0.000000000     0.103023894 -0.000256361  0.001020494
     0.024438362  9.821067297  0.000000000     0.000000000  0.101821927  0.000542168
    -0.098025753 -0.052623482  9.882966674     0.000000000  0.000000000  0.101184192

  length of vectors
     9.706486138  9.821097703  9.883592897     0.103029267  0.101823371  0.101184192


 FORCES acting on ions
    electron-ion (+dipol)            ewald-force                    non-local-force                 convergence-correction
 -----------------------------------------------------------------------------------------------
   -.175E+02 0.296E+02 0.417E+02   0.196E+02 -.331E+02 -.466E+02   -.188E+01 0.315E+01 0.443E+01   0.254E-04 -.488E-04 -.665E-04
   0.545E+02 -.676E+01 0.316E+01   -.620E+02 0.766E+01 -.363E+01   0.605E+01 -.758E+00 0.330E+00   -.835E-04 0.103E-04 -.181E-05
   -.241E+02 -.486E+02 0.707E+00   0.271E+02 0.546E+02 -.787E+00   -.259E+01 -.524E+01 0.690E-01   0.353E-04 0.766E-04 0.376E-05
   -.117E+02 0.250E+02 -.459E+02   0.130E+02 -.277E+02 0.509E+02   -.121E+01 0.260E+01 -.478E+01   0.158E-04 -.365E-04 0.743E-04
   -.175E+01 0.120E+01 0.262E-01   0.221E+01 -.147E+01 0.114E+00   0.293E+00 -.150E+00 0.277E+00   0.592E-05 -.843E-05 0.386E-04
 -----------------------------------------------------------------------------------------------
   -.673E+00 0.398E+00 -.326E+00   0.533E-14 0.000E+00 -.711E-14   0.672E+00 -.397E+00 0.326E+00   -.112E-05 -.685E-05 0.484E-04
 
 
 POSITION                                       TOTAL-FORCE (eV/Angst)
 -----------------------------------------------------------------------------------
      5.19686      3.97821      3.56204         0.183730     -0.339292     -0.467159
      3.79937      4.69908      4.33426        -1.449955      0.151404     -0.140760
      5.32277      5.52999      4.38080         0.411535      0.740445     -0.011657
      5.08393      4.06082      5.32823         0.105307     -0.128344      0.203062
      4.84627      4.56899      4.39385         0.748653     -0.423573      0.416742
 -----------------------------------------------------------------------------------
    total drift:                               -0.000731      0.000640      0.000227


--------------------------------------------------------------------------------------------------------



  FREE ENERGIE OF THE ION-ELECTRON SYSTEM (eV)
  ---------------------------------------------------
  free  energy   TOTEN  =       -23.98434394 eV

  energy  without entropy=      -23.98434394  energy(sigma->0) =      -23.98434394
 


--------------------------------------------------------------------------------------------------------


    POTLOK:  cpu time    0.0971: real time    0.0992


--------------------------------------------------------------------------------------------------------


           RANDOM_SEED =         172211149                0                0
           RANDOM_SEED =         172211149               30                0
   IONSTEP:  cpu time    0.0034: real time    0.0064

  ENERGY OF THE ELECTRON-ION-THERMOSTAT SYSTEM (eV)
  ---------------------------------------------------
% ion-electron   TOTEN  =       -23.984344  see above
  kinetic energy EKIN   =         0.001019
  kin. lattice  EKIN_LAT=         0.000000  (temperature    1.97 K)
  nose potential ES     =         0.000000
  nose kinetic   EPS    =         0.000000
  ---------------------------------------------------
  total energy   ETOTAL =       -23.983325 eV

  maximum distance moved by ions :      0.36E-03

    WAVPRE:  cpu time    0.0317: real time    0.0321
    FEWALD:  cpu time    0.0009: real time    0.0009
    ORTHCH:  cpu time    0.0073: real time    0.0074
     LOOP+:  cpu time    5.2217: real time    5.3645


--------------------------------------- Iteration      2(   1)  ---------------------------------------


    POTLOK:  cpu time    0.0970: real time    0.0984
    SETDIJ:  cpu time    0.0020: real time    0.0020
     EDDAV:  cpu time    0.1050: real time    0.1062
       DOS:  cpu time    0.0002: real time    0.0002
    CHARGE:  cpu time    0.0115: real time    0.0119
    MIXING:  cpu time    0.0033: real time    0.0033
    --------------------------------------------
      LOOP:  cpu time    0.2190: real time    0.2220

 eigenvalue-minimisations  :    64
 total energy-change (2. order) :-0.7842530E-02  (-0.9876690E-03)
 number of electron       8.0000000 magnetization 
 augmentation part        0.1909578 magnetization 

 Broyden mixing:
  rms(total) = 0.56223E-02    rms(broyden)= 0.56186E-02
  rms(prec ) = 0.73752E-02
  weight for this iteration     100.00

 Free energy of the ion-electron system (eV)
  ---------------------------------------------------
  alpha Z        PSCENC =         0.25713260
  Ewald energy   TEWEN  =       131.05031914
  -Hartree energ DENC   =      -286.43481249
  -exchange      EXHF   =         0.00000000
  -V(xc)+E(xc)   XCENC  =        24.97593745
  PAW double counting   =       500.44594384     -501.25270496
  entropy T*S    EENTRO =        -0.00000000
  eigenvalues    EBANDS =       -90.07575639
  atomic energy  EATOM  =       197.04175453
  Solvation  Ediel_sol  =         0.00000000
  ---------------------------------------------------
  free energy    TOTEN  =       -23.99218628 eV

  energy without entropy =      -23.99218628  energy(sigma->0) =      -23.99218628


--------------------------------------------------------------------------------------------------------




--------------------------------------- Iteration      2(   2)  ---------------------------------------


    POTLOK:  cpu time    0.0925: real time    0.0946
    SETDIJ:  cpu time    0.0019: real time    0.0019
    EDDIAG:  cpu time    0.0250: real time    0.0254
  RMM-DIIS:  cpu time    0.1087: real time    0.1103
    ORTHCH:  cpu time    0.0015: real time    0.0016
       DOS:  cpu time    0.0002: real time    0.0002
    CHARGE:  cpu time    0.0118: real time    0.0119
    MIXING:  cpu time    0.0034: real time    0.0035
    --------------------------------------------
      LOOP:  cpu time    0.2451: real time    0.2495

 eigenvalue-minimisations  :    64
 total energy-change (2. order) : 0.8752308E-04  (-0.2338677E-04)
 number of electron       8.0000000 magnetization 
 augmentation part        0.1910231 magnetization 

 Broyden mixing:
  rms(total) = 0.26364E-02    rms(broyden)= 0.26359E-02
  rms(prec ) = 0.32714E-02
  weight for this iteration     100.00

 eigenvalues of (default mixing * dielectric matrix)
  average eigenvalue GAMMA=   1.7472
  1.7472

 Free energy of the ion-electron system (eV)
  ---------------------------------------------------
  alpha Z        PSCENC =         0.25713260
  Ewald energy   TEWEN  =       131.05031914
  -Hartree energ DENC   =      -286.33947890
  -exchange      EXHF   =         0.00000000
  -V(xc)+E(xc)   XCENC  =        24.97070332
  PAW double counting   =       499.08779403     -499.89344661
  entropy T*S    EENTRO =        -0.00000000
  eigenvalues    EBANDS =       -90.16687687
  atomic energy  EATOM  =       197.04175453
  Solvation  Ediel_sol  =         0.00000000
  ---------------------------------------------------
  free energy    TOTEN  =       -23.99209876 eV

  energy without entropy =      -23.99209876  energy(sigma->0) =      -23.99209876


--------------------------------------------------------------------------------------------------------




--------------------------------------- Iteration      2(   3)  ---------------------------------------


    POTLOK:  cpu time    0.0876: real time    0.0886
    SETDIJ:  cpu time    0.0020: real time    0.0020
    EDDIAG:  cpu time    0.0251: real time    0.0254
  RMM-DIIS:  cpu time    0.1093: real time    0.1108
    ORTHCH:  cpu time    0.0018: real time    0.0018
       DOS:  cpu time    0.0002: real time    0.0002
    CHARGE:  cpu time    0.0119: real time    0.0119
    MIXING:  cpu time    0.0036: real time    0.0036
    --------------------------------------------
      LOOP:  cpu time    0.2415: real time    0.2444

 eigenvalue-minimisations  :    64
 total energy-change (2. order) : 0.6704855E-05  (-0.1558045E-04)
 number of electron       8.0000000 magnetization 
 augmentation part        0.1911263 magnetization 

 Broyden mixing:
  rms(total) = 0.11072E-02    rms(broyden)= 0.11066E-02
  rms(prec ) = 0.13182E-02
  weight for this iteration     100.00

 eigenvalues of (default mixing * dielectric matrix)
  average eigenvalue GAMMA=   1.2223
  0.8401  1.6045

 Free energy of the ion-electron system (eV)
  ---------------------------------------------------
  alpha Z        PSCENC =         0.25713260
  Ewald energy   TEWEN  =       131.05031914
  -Hartree energ DENC   =      -286.27756890
  -exchange      EXHF   =         0.00000000
  -V(xc)+E(xc)   XCENC  =        24.96726456
  PAW double counting   =       497.91348361     -498.71830086
  entropy T*S    EENTRO =        -0.00000000
  eigenvalues    EBANDS =       -90.22617673
  atomic energy  EATOM  =       197.04175453
  Solvation  Ediel_sol  =         0.00000000
  ---------------------------------------------------
  free energy    TOTEN  =       -23.99209205 eV

  energy without entropy =      -23.99209205  energy(sigma->0) =      -23.99209205


--------------------------------------------------------------------------------------------------------




--------------------------------------- Iteration      2(   4)  ---------------------------------------


    POTLOK:  cpu time    0.0878: real time    0.0888
    SETDIJ:  cpu time    0.0020: real time    0.0019
    EDDIAG:  cpu time    0.0272: real time    0.0278
  RMM-DIIS:  cpu time    0.1089: real time    0.1100
    ORTHCH:  cpu time    0.0017: real time    0.0018
       DOS:  cpu time    0.0002: real time    0.0002
    CHARGE:  cpu time    0.0118: real time    0.0119
    MIXING:  cpu time    0.0039: real time    0.0039
    --------------------------------------------
      LOOP:  cpu time    0.2435: real time    0.2463

 eigenvalue-minimisations  :    60
 total energy-change (2. order) : 0.1221780E-05  (-0.3128549E-06)
 number of electron       8.0000000 magnetization 
 augmentation part        0.1911233 magnetization 

 Broyden mixing:
  rms(total) = 0.75383E-03    rms(broyden)= 0.75379E-03
  rms(prec ) = 0.85678E-03
  weight for this iteration     100.00

 eigenvalues of (default mixing * dielectric matrix)
  average eigenvalue GAMMA=   1.8133
  2.7063  1.0520  1.6815

 Free energy of the ion-electron system (eV)
  ---------------------------------------------------
  alpha Z        PSCENC =         0.25713260
  Ewald energy   TEWEN  =       131.05031914
  -Hartree energ DENC   =      -286.29050466
  -exchange      EXHF   =         0.00000000
  -V(xc)+E(xc)   XCENC  =        24.96782389
  PAW double counting   =       497.81598762     -498.62097133
  entropy T*S    EENTRO =        -0.00000000
  eigenvalues    EBANDS =       -90.21363263
  atomic energy  EATOM  =       197.04175453
  Solvation  Ediel_sol  =         0.00000000
  ---------------------------------------------------
  free energy    TOTEN  =       -23.99209083 eV

  energy without entropy =      -23.99209083  energy(sigma->0) =      -23.99209083


--------------------------------------------------------------------------------------------------------




--------------------------------------- Iteration      2(   5)  ---------------------------------------


    POTLOK:  cpu time    0.0899: real time    0.0911
    SETDIJ:  cpu time    0.0019: real time    0.0019
    EDDIAG:  cpu time    0.0248: real time    0.0251
  RMM-DIIS:  cpu time    0.1087: real time    0.1100
    ORTHCH:  cpu time    0.0015: real time    0.0015
       DOS:  cpu time    0.0002: real time    0.0002
    CHARGE:  cpu time    0.0119: real time    0.0121
    MIXING:  cpu time    0.0040: real time    0.0040
    --------------------------------------------
      LOOP:  cpu time    0.2429: real time    0.2459

 eigenvalue-minimisations  :    64
 total energy-change (2. order) :-0.3064272E-05  (-0.1907139E-05)
 number of electron       8.0000000 magnetization 
 augmentation part        0.1910897 magnetization 

 Broyden mixing:
  rms(total) = 0.63163E-03    rms(broyden)= 0.63150E-03
  rms(prec ) = 0.84418E-03
  weight for this iteration     100.00

 eigenvalues of (default mixing * dielectric matrix)
  average eigenvalue GAMMA=   1.4349
  2.4325  0.9832  1.1620  1.1620

 Free energy of the ion-electron system (eV)
  ---------------------------------------------------
  alpha Z        PSCENC =         0.25713260
  Ewald energy   TEWEN  =       131.05031914
  -Hartree energ DENC   =      -286.30776270
  -exchange      EXHF   =         0.00000000
  -V(xc)+E(xc)   XCENC  =        24.96842732
  PAW double counting   =       497.34214773     -498.14734303
  entropy T*S    EENTRO =        -0.00000000
  eigenvalues    EBANDS =       -90.19676949
  atomic energy  EATOM  =       197.04175453
  Solvation  Ediel_sol  =         0.00000000
  ---------------------------------------------------
  free energy    TOTEN  =       -23.99209389 eV

  energy without entropy =      -23.99209389  energy(sigma->0) =      -23.99209389


--------------------------------------------------------------------------------------------------------




--------------------------------------- Iteration      2(   6)  ---------------------------------------


    POTLOK:  cpu time    0.0892: real time    0.0907
    SETDIJ:  cpu time    0.0022: real time    0.0022
    EDDIAG:  cpu time    0.0251: real time    0.0254
  RMM-DIIS:  cpu time    0.1090: real time    0.1104
    ORTHCH:  cpu time    0.0016: real time    0.0017
       DOS:  cpu time    0.0002: real time    0.0002
    CHARGE:  cpu time    0.0119: real time    0.0120
    MIXING:  cpu time    0.0040: real time    0.0040
    --------------------------------------------
      LOOP:  cpu time    0.2433: real time    0.2467

 eigenvalue-minimisations  :    64
 total energy-change (2. order) : 0.1670155E-05  (-0.5457930E-06)
 number of electron       8.0000000 magnetization 
 augmentation part        0.1911091 magnetization 

 Broyden mixing:
  rms(total) = 0.39382E-04    rms(broyden)= 0.39130E-04
  rms(prec ) = 0.60713E-04
  weight for this iteration     100.00

 eigenvalues of (default mixing * dielectric matrix)
  average eigenvalue GAMMA=   1.6092
  2.2792  2.2792  1.0085  1.2395  1.2395

 Free energy of the ion-electron system (eV)
  ---------------------------------------------------
  alpha Z        PSCENC =         0.25713260
  Ewald energy   TEWEN  =       131.05031914
  -Hartree energ DENC   =      -286.29308559
  -exchange      EXHF   =         0.00000000
  -V(xc)+E(xc)   XCENC  =        24.96776789
  PAW double counting   =       497.38236016     -498.18736736
  entropy T*S    EENTRO =        -0.00000000
  eigenvalues    EBANDS =       -90.21097359
  atomic energy  EATOM  =       197.04175453
  Solvation  Ediel_sol  =         0.00000000
  ---------------------------------------------------
  free energy    TOTEN  =       -23.99209222 eV

  energy without entropy =      -23.99209222  energy(sigma->0) =      -23.99209222


--------------------------------------------------------------------------------------------------------




--------------------------------------- Iteration      2(   7)  ---------------------------------------


    POTLOK:  cpu time    0.0896: real time    0.0913
    SETDIJ:  cpu time    0.0019: real time    0.0019
    EDDIAG:  cpu time    0.0252: real time    0.0255
  RMM-DIIS:  cpu time    0.0915: real time    0.0935
    ORTHCH:  cpu time    0.0015: real time    0.0015
[...]

  ENERGY OF THE ELECTRON-ION-THERMOSTAT SYSTEM (eV)
  ---------------------------------------------------
% ion-electron   TOTEN  =       -24.002434  see above
  kinetic energy EKIN   =         0.018769
  kin. lattice  EKIN_LAT=         0.000000  (temperature   36.30 K)
  nose potential ES     =         0.000000
  nose kinetic   EPS    =         0.000000
  ---------------------------------------------------
  total energy   ETOTAL =       -23.983665 eV

  maximum distance moved by ions :      0.62E-03

    WAVPRE:  cpu time    0.0371: real time    0.0377
    FEWALD:  cpu time    0.0011: real time    0.0011
    ORTHCH:  cpu time    0.0074: real time    0.0075
 Prediction of Wavefunctions ALPHA= 2.062 BETA=-1.109
     LOOP+:  cpu time    1.3538: real time    1.3738


--------------------------------------- Iteration     10(   1)  ---------------------------------------


    POTLOK:  cpu time    0.1523: real time    0.1568
    SETDIJ:  cpu time    0.0019: real time    0.0020
     EDDAV:  cpu time    0.1056: real time    0.1072
       DOS:  cpu time    0.0003: real time    0.0003
    CHARGE:  cpu time    0.0114: real time    0.0116
    MIXING:  cpu time    0.0033: real time    0.0034
    --------------------------------------------
      LOOP:  cpu time    0.2749: real time    0.2812

 eigenvalue-minimisations  :    64
 total energy-change (2. order) : 0.1079936E-01  (-0.7423633E-04)
 number of electron       7.9999996 magnetization 
 augmentation part        0.1794473 magnetization 

 Broyden mixing:
  rms(total) = 0.36531E-03    rms(broyden)= 0.36480E-03
  rms(prec ) = 0.38487E-03
  weight for this iteration     100.00

 Free energy of the ion-electron system (eV)
  ---------------------------------------------------
  alpha Z        PSCENC =         0.25713260
  Ewald energy   TEWEN  =       121.24544885
  -Hartree energ DENC   =      -277.67539317
  -exchange      EXHF   =         0.00000000
  -V(xc)+E(xc)   XCENC  =        24.51186681
  PAW double counting   =       438.48973291     -439.26031667
  entropy T*S    EENTRO =        -0.00000000
  eigenvalues    EBANDS =       -88.60185982
  atomic energy  EATOM  =       197.04175453
  Solvation  Ediel_sol  =         0.00000000
  ---------------------------------------------------
  free energy    TOTEN  =       -23.99163396 eV

  energy without entropy =      -23.99163396  energy(sigma->0) =      -23.99163396


--------------------------------------------------------------------------------------------------------




--------------------------------------- Iteration     10(   2)  ---------------------------------------


    POTLOK:  cpu time    0.0982: real time    0.0993
    SETDIJ:  cpu time    0.0020: real time    0.0020
    EDDIAG:  cpu time    0.0248: real time    0.0252
  RMM-DIIS:  cpu time    0.1068: real time    0.1084
    ORTHCH:  cpu time    0.0020: real time    0.0020
       DOS:  cpu time    0.0002: real time    0.0002
    CHARGE:  cpu time    0.0120: real time    0.0121
    MIXING:  cpu time    0.0034: real time    0.0035
    --------------------------------------------
      LOOP:  cpu time    0.2493: real time    0.2527

 eigenvalue-minimisations  :    60
 total energy-change (2. order) :-0.1604761E-05  (-0.9635815E-06)
 number of electron       7.9999996 magnetization 
 augmentation part        0.1794515 magnetization 

 Broyden mixing:
  rms(total) = 0.23368E-03    rms(broyden)= 0.23351E-03
  rms(prec ) = 0.26549E-03
  weight for this iteration     100.00

 eigenvalues of (default mixing * dielectric matrix)
  average eigenvalue GAMMA=   0.9218
  0.9218

 Free energy of the ion-electron system (eV)
  ---------------------------------------------------
  alpha Z        PSCENC =         0.25713260
  Ewald energy   TEWEN  =       121.24544885
  -Hartree energ DENC   =      -277.67690931
  -exchange      EXHF   =         0.00000000
  -V(xc)+E(xc)   XCENC  =        24.51193919
  PAW double counting   =       438.40221274     -439.17279221
  entropy T*S    EENTRO =        -0.00000000
  eigenvalues    EBANDS =       -88.60042196
  atomic energy  EATOM  =       197.04175453
  Solvation  Ediel_sol  =         0.00000000
  ---------------------------------------------------
  free energy    TOTEN  =       -23.99163556 eV

  energy without entropy =      -23.99163556  energy(sigma->0) =      -23.99163556


--------------------------------------------------------------------------------------------------------




--------------------------------------- Iteration     10(   3)  ---------------------------------------


    POTLOK:  cpu time    0.0991: real time    0.1004
    SETDIJ:  cpu time    0.0019: real time    0.0019
    EDDIAG:  cpu time    0.0245: real time    0.0250
  RMM-DIIS:  cpu time    0.0881: real time    0.0895
    ORTHCH:  cpu time    0.0017: real time    0.0017
       DOS:  cpu time    0.0002: real time    0.0002
    CHARGE:  cpu time    0.0117: real time    0.0118
    MIXING:  cpu time    0.0037: real time    0.0038
    --------------------------------------------
      LOOP:  cpu time    0.2308: real time    0.2342

 eigenvalue-minimisations  :    48
 total energy-change (2. order) :-0.4434618E-06  (-0.2364991E-07)
 number of electron       7.9999996 magnetization 
 augmentation part        0.1794521 magnetization 

 Broyden mixing:
  rms(total) = 0.16219E-03    rms(broyden)= 0.16217E-03
  rms(prec ) = 0.18622E-03
  weight for this iteration     100.00

 eigenvalues of (default mixing * dielectric matrix)
  average eigenvalue GAMMA=   1.7110
  1.1447  2.2773

 Free energy of the ion-electron system (eV)
  ---------------------------------------------------
  alpha Z        PSCENC =         0.25713260
  Ewald energy   TEWEN  =       121.24544885
  -Hartree energ DENC   =      -277.67665865
  -exchange      EXHF   =         0.00000000
  -V(xc)+E(xc)   XCENC  =        24.51194424
  PAW double counting   =       438.37694025     -439.14750583
  entropy T*S    EENTRO =        -0.00000000
  eigenvalues    EBANDS =       -88.60069200
  atomic energy  EATOM  =       197.04175453
  Solvation  Ediel_sol  =         0.00000000
  ---------------------------------------------------
  free energy    TOTEN  =       -23.99163601 eV

  energy without entropy =      -23.99163601  energy(sigma->0) =      -23.99163601


--------------------------------------------------------------------------------------------------------




--------------------------------------- Iteration     10(   4)  ---------------------------------------


    POTLOK:  cpu time    0.0976: real time    0.0999
    SETDIJ:  cpu time    0.0020: real time    0.0020
    EDDIAG:  cpu time    0.0245: real time    0.0250
  RMM-DIIS:  cpu time    0.0875: real time    0.0888
    ORTHCH:  cpu time    0.0018: real time    0.0018
       DOS:  cpu time    0.0002: real time    0.0002
    CHARGE:  cpu time    0.0119: real time    0.0121
    MIXING:  cpu time    0.0037: real time    0.0037
    --------------------------------------------
      LOOP:  cpu time    0.2293: real time    0.2336

 eigenvalue-minimisations  :    48
 total energy-change (2. order) :-0.1126118E-05  (-0.1745629E-07)
 number of electron       7.9999996 magnetization 
 augmentation part        0.1794542 magnetization 

 Broyden mixing:
  rms(total) = 0.25797E-04    rms(broyden)= 0.25774E-04
  rms(prec ) = 0.41913E-04
  weight for this iteration     100.00

 eigenvalues of (default mixing * dielectric matrix)
  average eigenvalue GAMMA=   1.3891
  2.3721  1.0742  0.7211

 Free energy of the ion-electron system (eV)
  ---------------------------------------------------
  alpha Z        PSCENC =         0.25713260
  Ewald energy   TEWEN  =       121.24544885
  -Hartree energ DENC   =      -277.67613912
  -exchange      EXHF   =         0.00000000
  -V(xc)+E(xc)   XCENC  =        24.51195585
  PAW double counting   =       438.34364693     -439.11418362
  entropy T*S    EENTRO =        -0.00000000
  eigenvalues    EBANDS =       -88.60125316
  atomic energy  EATOM  =       197.04175453
  Solvation  Ediel_sol  =         0.00000000
  ---------------------------------------------------
  free energy    TOTEN  =       -23.99163713 eV

  energy without entropy =      -23.99163713  energy(sigma->0) =      -23.99163713


--------------------------------------------------------------------------------------------------------




--------------------------------------- Iteration     10(   5)  ---------------------------------------


    POTLOK:  cpu time    0.0990: real time    0.1006
    SETDIJ:  cpu time    0.0021: real time    0.0021
    EDDIAG:  cpu time    0.0246: real time    0.0250
  RMM-DIIS:  cpu time    0.0844: real time    0.0856
    ORTHCH:  cpu time    0.0018: real time    0.0018
       DOS:  cpu time    0.0002: real time    0.0002
    --------------------------------------------
      LOOP:  cpu time    0.2120: real time    0.2152

 eigenvalue-minimisations  :    37
 total energy-change (2. order) :-0.1614019E-06  (-0.1181893E-08)
 number of electron       7.9999996 magnetization 
 augmentation part        0.1794542 magnetization 

 Free energy of the ion-electron system (eV)
  ---------------------------------------------------
  alpha Z        PSCENC =         0.25713260
  Ewald energy   TEWEN  =       121.24544885
  -Hartree energ DENC   =      -277.67648977
  -exchange      EXHF   =         0.00000000
  -V(xc)+E(xc)   XCENC  =        24.51197278
  PAW double counting   =       438.34267232     -439.11321120
  entropy T*S    EENTRO =        -0.00000000
  eigenvalues    EBANDS =       -88.60091741
  atomic energy  EATOM  =       197.04175453
  Solvation  Ediel_sol  =         0.00000000
  ---------------------------------------------------
  free energy    TOTEN  =       -23.99163729 eV

  energy without entropy =      -23.99163729  energy(sigma->0) =      -23.99163729


--------------------------------------------------------------------------------------------------------




 average (electrostatic) potential at core
  the test charge radii are     0.5201  0.6991
  (the norm of the test charge is              1.0000)
       1 -41.3986       2 -41.2249       3 -41.3442       4 -41.4685       5 -58.0866
 
 
 
 E-fermi :  -8.1468     XC(G=0):  -0.7704     alpha+bet : -0.2236


 k-point     1 :       0.2500    0.2500    0.2500
  band No.  band energies     occupation 
      1     -16.7142      2.00000
      2      -9.2551      2.00000
      3      -9.2093      2.00000
      4      -9.1219      2.00000
      5      -0.3439      0.00000
      6       0.5564      0.00000
      7       0.6746      0.00000
      8       0.6982      0.00000

 k-point     2 :      -0.2500    0.2500    0.2500
  band No.  band energies     occupation 
      1     -16.7142      2.00000
      2      -9.2551      2.00000
      3      -9.2093      2.00000
      4      -9.1219      2.00000
      5      -0.3455      0.00000
      6       0.5544      0.00000
      7       0.6735      0.00000
      8       0.7062      0.00000

 k-point     3 :       0.2500   -0.2500    0.2500
  band No.  band energies     occupation 
      1     -16.7143      2.00000
      2      -9.2551      2.00000
      3      -9.2093      2.00000
      4      -9.1218      2.00000
      5      -0.3446      0.00000
      6       0.5548      0.00000
      7       0.6718      0.00000
      8       0.7029      0.00000

 k-point     4 :      -0.2500   -0.2500    0.2500
  band No.  band energies     occupation 
      1     -16.7143      2.00000
      2      -9.2551      2.00000
      3      -9.2093      2.00000
      4      -9.1219      2.00000
      5      -0.3472      0.00000
      6       0.5645      0.00000
      7       0.6833      0.00000
      8       0.7028      0.00000


--------------------------------------------------------------------------------------------------------


 soft charge-density along one line, spin component           1
         0         1         2         3         4         5         6         7         8         9
 total charge-density along one line
 
 pseudopotential strength for first ion, spin component:           1
 -2.340  -4.032  -0.001  -0.001   0.001
 -4.032  -6.862  -0.003  -0.004   0.002
 -0.001  -0.003  -0.338   0.002  -0.001
 -0.001  -0.004   0.002  -0.337  -0.001
  0.001   0.002  -0.001  -0.001  -0.339
 total augmentation occupancy for first ion, spin component:           1
  3.486  -0.630   0.226   0.320  -0.133
 -0.630   0.127  -0.042  -0.059   0.025
  0.226  -0.042   0.021   0.017  -0.007
  0.320  -0.059   0.017   0.033  -0.010
 -0.133   0.025  -0.007  -0.010   0.012


------------------------ aborting loop because EDIFF is reached ----------------------------------------


    CHARGE:  cpu time    0.0117: real time    0.0118
    FORLOC:  cpu time    0.0100: real time    0.0101
    FORNL :  cpu time    0.0182: real time    0.0185
    STRESS:  cpu time    0.1331: real time    0.1341
    FORCOR:  cpu time    0.0973: real time    0.0984
    FORHAR:  cpu time    0.0315: real time    0.0318
    MIXING:  cpu time    0.0038: real time    0.0038
    OFIELD:  cpu time    0.0001: real time    0.0001

  FORCE on cell =-STRESS in cart. coord.  units (eV):
  Direction    XX          YY          ZZ          XY          YZ          ZX
  --------------------------------------------------------------------------------------
  Alpha Z     0.25713     0.25713     0.25713
  Ewald      40.80927    40.36973    40.06642    -0.08072    -0.12735    -0.33477
  Hartree    94.04001    92.29832    91.34061     0.02265     0.00072    -0.19877
  E(xc)     -26.95952   -26.96295   -26.96519    -0.00015     0.00151    -0.00130
  Local    -194.35886  -191.62422  -190.06904     0.02127     0.05110     0.50973
  n-local   -15.31601   -15.38887   -15.42796     0.00255     0.01609    -0.00323
  augment     0.13027     0.12515     0.12235     0.00031     0.00079     0.00007
  Kinetic    99.49748    99.68439    99.80162     0.00887    -0.08419     0.06589
  Fock        0.00000     0.00000     0.00000     0.00000     0.00000     0.00000
  -------------------------------------------------------------------------------------
  Total      -1.90024    -1.24132    -0.87405    -0.02523    -0.14135     0.03761
  in kB      -3.23155    -2.11098    -1.48641    -0.04290    -0.24037     0.06395
  external pressure =       -2.28 kB  Pullay stress =        0.00 kB

  kinetic pressure (ideal gas correction) =      0.02 kB
  total pressure  =     -2.26 kB
  Total+kin.    -3.203      -2.101      -1.480      -0.041      -0.239       0.069

 VOLUME and BASIS-vectors are now :
 -----------------------------------------------------------------------------
  energy-cutoff  :      400.00
  volume of cell :      942.12
      direct lattice vectors                 reciprocal lattice vectors
     9.706486138  0.000000000  0.000000000     0.103023894 -0.000256361  0.001020494
     0.024438362  9.821067297  0.000000000     0.000000000  0.101821927  0.000542168
    -0.098025753 -0.052623482  9.882966674     0.000000000  0.000000000  0.101184192

  length of vectors
     9.706486138  9.821097703  9.883592897     0.103029267  0.101823371  0.101184192


 FORCES acting on ions
    electron-ion (+dipol)            ewald-force                    non-local-force                 convergence-correction
 -----------------------------------------------------------------------------------------------
   -.166E+02 0.283E+02 0.400E+02   0.181E+02 -.309E+02 -.437E+02   -.169E+01 0.289E+01 0.408E+01   0.585E-04 -.850E-04 -.109E-03
   0.501E+02 -.619E+01 0.322E+01   -.539E+02 0.665E+01 -.348E+01   0.490E+01 -.606E+00 0.307E+00   -.200E-03 0.186E-04 -.150E-04
   -.228E+02 -.461E+02 0.765E+00   0.248E+02 0.501E+02 -.842E+00   -.230E+01 -.464E+01 0.731E-01   0.869E-04 0.137E-03 -.255E-05
   -.115E+02 0.244E+02 -.447E+02   0.126E+02 -.268E+02 0.492E+02   -.119E+01 0.253E+01 -.465E+01   0.477E-04 -.784E-04 0.129E-03
   0.135E+01 -.767E+00 0.959E+00   -.164E+01 0.955E+00 -.112E+01   -.316E+00 0.204E+00 -.948E-01   0.145E-03 -.646E-04 0.324E-05
 -----------------------------------------------------------------------------------------------
   0.600E+00 -.372E+00 0.278E+00   -.355E-14 0.355E-14 0.000E+00   -.601E+00 0.372E+00 -.278E+00   0.139E-03 -.721E-04 0.525E-05
 
 
 POSITION                                       TOTAL-FORCE (eV/Angst)
 -----------------------------------------------------------------------------------
      5.20637      3.95879      3.53491        -0.183642      0.290496      0.389176
      3.72243      4.70632      4.32429         1.159970     -0.143510      0.049607
      5.34648      5.57090      4.37971        -0.320572     -0.630956     -0.004271
      5.09175      4.05231      5.34084        -0.044585      0.092436     -0.177153
      4.84926      4.56731      4.39598        -0.611862      0.391408     -0.257709
 -----------------------------------------------------------------------------------
    total drift:                               -0.000692     -0.000125     -0.000349


--------------------------------------------------------------------------------------------------------



  FREE ENERGIE OF THE ION-ELECTRON SYSTEM (eV)
  ---------------------------------------------------
  free  energy   TOTEN  =       -23.99163729 eV

  energy  without entropy=      -23.99163729  energy(sigma->0) =      -23.99163729
 
 d Force =-0.1079075E-01[-0.117E-01,-0.991E-02]  d Energy =-0.1079652E-01 0.577E-05
 d Force = 0.8035757E+00[ 0.801E+00, 0.807E+00]  d Ewald  = 0.8035696E+00 0.612E-05


--------------------------------------------------------------------------------------------------------


    POTLOK:  cpu time    0.0994: real time    0.1010


--------------------------------------------------------------------------------------------------------


           RANDOM_SEED =         172211149               30                0
   IONSTEP:  cpu time    0.0002: real time    0.0001

  ENERGY OF THE ELECTRON-ION-THERMOSTAT SYSTEM (eV)
  ---------------------------------------------------
% ion-electron   TOTEN  =       -23.991637  see above
  kinetic energy EKIN   =         0.008162
  kin. lattice  EKIN_LAT=         0.000000  (temperature   15.79 K)
  nose potential ES     =         0.000000
  nose kinetic   EPS    =         0.000000
  ---------------------------------------------------
  total energy   ETOTAL =       -23.983476 eV

  maximum distance moved by ions :      0.34E-03


 mean value of Nose-termostat <S>:     1.000 mean value of <T> :    48.263
 mean temperature <T/S>/<1/S>  :    48.263

    WAVPRE:  cpu time    0.0409: real time    0.0416
    FEWALD:  cpu time    0.0011: real time    0.0011
    ORTHCH:  cpu time    0.0074: real time    0.0075
 Prediction of Wavefunctions ALPHA= 2.037 BETA=-1.075
    POTLOK:  cpu time    0.0981: real time    0.0992
    EDDIAG:  cpu time    0.0255: real time    0.0258
     LOOP+:  cpu time    1.7795: real time    1.8069
    4ORBIT:  cpu time    0.0000: real time    0.0007

 total amount of memory used by VASP MPI-rank0    50658. kBytes
=======================================================================

   base      :      30000. kBytes
   nonl-proj :       2538. kBytes
   fftplans  :       6405. kBytes
   grid      :      10059. kBytes
   one-center:          6. kBytes
   wavefun   :       1650. kBytes
 
  
  
 General timing and accounting informations for this job:
 ========================================================
  
                  Total CPU time used (sec):       19.906
                            User time (sec):       18.542
                          System time (sec):        1.364
                         Elapsed time (sec):       20.772
  
                   Maximum memory used (kb):      153404.
                   Average memory used (kb):           0.
  
                          Minor page faults:       155632
                          Major page faults:          210
                 Voluntary context switches:          600
