 vasp.5.4.4.18Apr17-6-g9f103f2a35 (build Jul 09 2021 13:05:15) complex          
  
 executed on             LinuxIFC date 2021.11.04  19:03:09
 running on   16 total cores
 distrk:  each k-point on   16 cores,    1 groups
 distr:  one band on NCORES_PER_BAND=   4 cores,    4 groups


--------------------------------------------------------------------------------------------------------


 INCAR:
 POTCAR:    PAW_PBE H 15Jun2001                   
 POTCAR:    PAW_PBE C 08Apr2002                   
 POTCAR:    PAW_PBE H 15Jun2001                   
   VRHFIN =H: ultrasoft test                                                    
   LEXCH  = PE                                                                  
   EATOM  =    12.4884 eV,    0.9179 Ry                                         
                                                                                
   TITEL  = PAW_PBE H 15Jun2001                                                 
   LULTRA =        F    use ultrasoft PP ?                                      
   IUNSCR =        0    unscreen: 0-lin 1-nonlin 2-no                           
   RPACOR =    0.000    partial core radius                                     
   POMASS =    1.000; ZVAL   =    1.000    mass and valenz                      
   RCORE  =    1.100    outmost cutoff radius                                   
   RWIGS  =    0.700; RWIGS  =    0.370    wigner-seitz radius (au A)           
   ENMAX  =  250.000; ENMIN  =  200.000 eV                                      
   RCLOC  =    0.701    cutoff for local pot                                    
   LCOR   =        T    correct aug charges                                     
   LPAW   =        T    paw PP                                                  
   EAUG   =  400.000                                                            
   RMAX   =    1.123    core radius for proj-oper                               
   RAUG   =    1.200    factor for augmentation sphere                          
   RDEP   =    1.112    radius for radial grids                                 
   RDEPT  =    0.926    core radius for aug-charge                              
                                                                                
   Atomic configuration                                                         
    2 entries                                                                   
     n  l   j            E        occ.                                          
     1  0  0.50        -6.4927   1.0000                                         
     2  1  0.50        -3.4015   0.0000                                         
   Description                                                                  
     l       E           TYP  RCUT    TYP  RCUT                                 
     0     -6.4927494     23  1.100                                             
     0      6.8029130     23  1.100                                             
     1     -4.0817478     23  1.100                                             
  local pseudopotential read in
  atomic valenz-charges read in
  non local Contribution for L=           0  read in
    real space projection operators read in
  non local Contribution for L=           0  read in
    real space projection operators read in
  non local Contribution for L=           1  read in
    real space projection operators read in
    PAW grid and wavefunctions read in
 
   number of l-projection  operators is LMAX  =           3
   number of lm-projection operators is LMMAX =           5
 
 POTCAR:    PAW_PBE C 08Apr2002                   
   VRHFIN =C: s2p2                                                              
   LEXCH  = PE                                                                  
   EATOM  =   147.1560 eV,   10.8157 Ry                                         
                                                                                
   TITEL  = PAW_PBE C 08Apr2002                                                 
   LULTRA =        F    use ultrasoft PP ?                                      
   IUNSCR =        1    unscreen: 0-lin 1-nonlin 2-no                           
   RPACOR =    1.200    partial core radius                                     
   POMASS =   12.011; ZVAL   =    4.000    mass and valenz                      
   RCORE  =    1.500    outmost cutoff radius                                   
   RWIGS  =    1.630; RWIGS  =    0.863    wigner-seitz radius (au A)           
   ENMAX  =  400.000; ENMIN  =  300.000 eV                                      
   ICORE  =        2    local potential                                         
   LCOR   =        T    correct aug charges                                     
   LPAW   =        T    paw PP                                                  
   EAUG   =  644.873                                                            
   DEXC   =    0.000                                                            
   RMAX   =    1.529    core radius for proj-oper                               
   RAUG   =    1.300    factor for augmentation sphere                          
   RDEP   =    1.501    radius for radial grids                                 
   RDEPT  =    1.300    core radius for aug-charge                              
                                                                                
   Atomic configuration                                                         
    4 entries                                                                   
     n  l   j            E        occ.                                          
     1  0  0.50      -273.3789   2.0000                                         
     2  0  0.50       -13.7508   2.0000                                         
     2  1  0.50        -5.2854   2.0000                                         
     3  2  1.50        -5.4423   0.0000                                         
   Description                                                                  
     l       E           TYP  RCUT    TYP  RCUT                                 
     0    -13.7508458     23  1.200                                             
     0     -8.2022199     23  1.200                                             
     1     -5.2854383     23  1.500                                             
     1     34.0145650     23  1.500                                             
     2     -5.4423304      7  1.500                                             
  local pseudopotential read in
  partial core-charges read in
  partial kinetic energy density read in
  atomic valenz-charges read in
  non local Contribution for L=           0  read in
    real space projection operators read in
  non local Contribution for L=           0  read in
    real space projection operators read in
  non local Contribution for L=           1  read in
    real space projection operators read in
  non local Contribution for L=           1  read in
    real space projection operators read in
    PAW grid and wavefunctions read in
 
   number of l-projection  operators is LMAX  =           4
   number of lm-projection operators is LMMAX =           8
 
  PAW_PBE H 15Jun2001                   :
 energy of atom  1       EATOM=  -12.4884
 kinetic energy error for atom=    0.0098 (will be added to EATOM!!)
  PAW_PBE C 08Apr2002                   :
 energy of atom  2       EATOM= -147.1560
 kinetic energy error for atom=    0.0288 (will be added to EATOM!!)
 
 
 POSCAR:  H  C                                   
  positions in cartesian coordinates
  No initial velocities read in
 exchange correlation table for  LEXCH =        8
   RHO(1)=    0.500       N(1)  =     2000
   RHO(2)=  100.500       N(2)  =     4000
 


--------------------------------------------------------------------------------------------------------


 ion  position               nearest neighbor table
   1  0.538  0.407  0.360-   5 1.08
   2  0.394  0.480  0.438-   5 1.10
   3  0.552  0.565  0.443-   5 1.06
   4  0.529  0.417  0.540-   5 1.09
   5  0.503  0.467  0.445-   3 1.06   1 1.08   4 1.09   2 1.10
 

IMPORTANT INFORMATION: All symmetrisations will be switched off!
NOSYMM: (Re-)initialisation of all symmetry stuff for point group C_1.

 
 

Automatic generation of k-mesh.
 generate k-points for:    2    2    2
Space group operators:
 irot       det(A)        alpha          n_x          n_y          n_z        tau_x        tau_y        tau_z
    1     1.000000     0.000000     1.000000     0.000000     0.000000     0.000000     0.000000     0.000000
 
 Subroutine IBZKPT returns following result:
 ===========================================
 
 Found      4 irreducible k-points:
 
 Following reciprocal coordinates:
            Coordinates               Weight
  0.250000  0.250000  0.250000      2.000000
 -0.250000  0.250000  0.250000      2.000000
  0.250000 -0.250000  0.250000      2.000000
 -0.250000 -0.250000  0.250000      2.000000
 
 Following cartesian coordinates:
            Coordinates               Weight
  0.025039  0.026266  0.026350      2.000000
 -0.025039  0.025237  0.025208      2.000000
  0.025039 -0.025237  0.025202      2.000000
 -0.025039 -0.026266  0.024059      2.000000
 


--------------------------------------------------------------------------------------------------------




 Dimension of arrays:
   k-points           NKPTS =      4   k-points in BZ     NKDIM =      4   number of bands    NBANDS=      8
   number of dos      NEDOS =    301   number of ions     NIONS =      5
   non local maximal  LDIM  =      4   non local SUM 2l+1 LMDIM =      8
   total plane-waves  NPLWV = 313600
   max r-space proj   IRMAX =      1   max aug-charges    IRDMAX=   4048
   dimension x,y,z NGX =    70 NGY =   64 NGZ =   70
   dimension x,y,z NGXF=   140 NGYF=  128 NGZF=  140
   support grid    NGXF=   140 NGYF=  128 NGZF=  140
   ions per type =               4   1
   NGX,Y,Z   is equivalent  to a cutoff of  11.66, 10.96, 11.73 a.u.
   NGXF,Y,Z  is equivalent  to a cutoff of  23.31, 21.91, 23.45 a.u.

 SYSTEM =  unknown system                          
 POSCAR =   H  C                                   

 Startparameter for this run:
   NWRITE =      2    write-flag & timer
   PREC   = a         normal or accurate (medium, high low for compatibility)
   ISTART =      0    job   : 0-new  1-cont  2-samecut
   ICHARG =      2    charge: 1-file 2-atom 10-const
   ISPIN  =      1    spin polarized calculation?
   LNONCOLLINEAR =      F non collinear calculations
   LSORBIT =      F    spin-orbit coupling
   INIWAV =      1    electr: 0-lowe 1-rand  2-diag
   LASPH  =      F    aspherical Exc in radial PAW
   METAGGA=      F    non-selfconsistent MetaGGA calc.

 Electronic Relaxation 1
   ENCUT  =  400.0 eV  29.40 Ry    5.42 a.u.  16.28 15.83 16.18*2*pi/ulx,y,z
   ENINI  =  400.0     initial cutoff
   ENAUG  =  644.9 eV  augmentation charge cutoff
   NELM   =    120;   NELMIN=  4; NELMDL= -5     # of ELM steps 
   EDIFF  = 0.1E-05   stopping-criterion for ELM
   LREAL  =      F    real-space projection
   NLSPLINE    = F    spline interpolate recip. space projectors
   LCOMPAT=      F    compatible to vasp.4.4
   GGA_COMPAT  = T    GGA compatible to vasp.4.4-vasp.4.6
   LMAXPAW     = -100 max onsite density
   LMAXMIX     =    2 max onsite mixed and CHGCAR
   VOSKOWN=      0    Vosko Wilk Nusair interpolation
   ROPT   =    0.00000   0.00000
 Ionic relaxation
   EDIFFG = 0.1E-04   stopping-criterion for IOM
   NSW    =     10    number of steps for IOM
   NBLOCK =      1;   KBLOCK =     10    inner block; outer block 
   IBRION =      0    ionic relax: 0-MD 1-quasi-New 2-CG
   NFREE  =      0    steps in history (QN), initial steepest desc. (CG)
   ISIF   =      2    stress and relaxation
   IWAVPR =     12    prediction:  0-non 1-charg 2-wave 3-comb
   ISYM   =      0    0-nonsym 1-usesym 2-fastsym
   LCORR  =      T    Harris-Foulkes like correction to forces

   POTIM  = 0.5000    time-step for ionic-motion
   TEIN   =    0.0    initial temperature
   TEBEG  =    0.0;   TEEND  =   0.0 temperature during run
   SMASS  =  -3.00    Nose mass-parameter (am)
   estimated Nose-frequenzy (Omega)   =  0.10E-29 period in steps =****** mass=  -0.228E-26a.u.
   SCALEE = 1.0000    scale energy and forces
   NPACO  =    256;   APACO  = 16.0  distance and # of slots for P.C.
   PSTRESS=    0.0 pullay stress

  Mass of Ions in am
   POMASS =   1.00 12.01
  Ionic Valenz
   ZVAL   =   1.00  4.00
  Atomic Wigner-Seitz radii
   RWIGS  =  -1.00 -1.00
  virtual crystal weights 
   VCA    =   1.00  1.00
   NELECT =       8.0000    total number of electrons
   NUPDOWN=      -1.0000    fix difference up-down

 DOS related values:
   EMIN   =  10.00;   EMAX   =-10.00  energy-range for DOS
   EFERMI =   0.00
   ISMEAR =     0;   SIGMA  =   0.20  broadening in eV -4-tet -1-fermi 0-gaus

 Electronic relaxation 2 (details)
   IALGO  =     68    algorithm
   LDIAG  =      T    sub-space diagonalisation (order eigenvalues)
   LSUBROT=      F    optimize rotation matrix (better conditioning)
   TURBO    =      0    0=normal 1=particle mesh
   IRESTART =      0    0=no restart 2=restart with 2 vectors
   NREBOOT  =      0    no. of reboots
   NMIN     =      0    reboot dimension
   EREF     =   0.00    reference energy to select bands
   IMIX   =      4    mixing-type and parameters
     AMIX     =   0.40;   BMIX     =  1.00
     AMIX_MAG =   1.60;   BMIX_MAG =  1.00
     AMIN     =   0.10
     WC   =   100.;   INIMIX=   1;  MIXPRE=   1;  MAXMIX= -45

 Intra band minimization:
   WEIMIN = 0.0010     energy-eigenvalue tresh-hold
   EBREAK =  0.31E-07  absolut break condition
   DEPER  =   0.30     relativ break condition  

   TIME   =   0.40     timestep for ELM

  volume/ion in A,a.u.               =     192.29      1297.62
  Fermi-wavevector in a.u.,A,eV,Ry     =   0.331740  0.626898  1.497344  0.110052
  Thomas-Fermi vector in A             =   1.228155
 
 Write flags
   LWAVE        =      F    write WAVECAR
   LDOWNSAMPLE  =      F    k-point downsampling of WAVECAR
   LCHARG       =      F    write CHGCAR
   LVTOT        =      F    write LOCPOT, total local potential
   LVHAR        =      F    write LOCPOT, Hartree potential only
   LELF         =      F    write electronic localiz. function (ELF)
   LORBIT       =      0    0 simple, 1 ext, 2 COOP (PROOUT), +10 PAW based schemes


 Dipole corrections
   LMONO  =      F    monopole corrections only (constant potential shift)
   LDIPOL =      F    correct potential (dipole corrections)
   IDIPOL =      0    1-x, 2-y, 3-z, 4-all directions 
   EPSILON=  1.0000000 bulk dielectric constant

 Exchange correlation treatment:
   GGA     =    --    GGA type
   LEXCH   =     8    internal setting for exchange type
   VOSKOWN=      0    Vosko Wilk Nusair interpolation
   LHFCALC =     F    Hartree Fock is set to
   LHFONE  =     F    Hartree Fock one center treatment
   AEXX    =    0.0000 exact exchange contribution

 Linear response parameters
   LEPSILON=     F    determine dielectric tensor
   LRPA    =     F    only Hartree local field effects (RPA)
   LNABLA  =     F    use nabla operator in PAW spheres
   LVEL    =     F    velocity operator in full k-point grid
   LINTERFAST=   F  fast interpolation
   KINTER  =     0    interpolate to denser k-point grid
   CSHIFT  =0.1000    complex shift for real part using Kramers Kronig
   OMEGAMAX=  -1.0    maximum frequency
   DEG_THRESHOLD= 0.2000000E-02 threshold for treating states as degnerate
   RTIME   =   -0.100 relaxation time in fs
  (WPLASMAI=    0.000 imaginary part of plasma frequency in eV, 0.658/RTIME)
   DFIELD  = 0.0000000 0.0000000 0.0000000 field for delta impulse in time
 
 Orbital magnetization related:
   ORBITALMAG=     F  switch on orbital magnetization
   LCHIMAG   =     F  perturbation theory with respect to B field
   DQ        =  0.001000  dq finite difference perturbation B field
   LLRAUG    =     F  two centre corrections for induced B field



--------------------------------------------------------------------------------------------------------


 molecular dynamics for ions
   using a microcanonical ensemble
 charge density and potential will be updated during run
 non-spin polarized calculation
 RMM-DIIS sequential band-by-band and
  variant of blocked Davidson during initial phase
 perform sub-space diagonalisation
    before iterative eigenvector-optimisation
 modified Broyden-mixing scheme, WC =      100.0
 initial mixing is a Kerker type mixing with AMIX =  0.4000 and BMIX =      1.0000
 Hartree-type preconditioning will be used
 using additional bands            4
 reciprocal scheme for non local part
 use partial core corrections
 calculate Harris-corrections to forces 
   (improved forces if not selfconsistent)
 use gradient corrections 
 use of overlap-Matrix (Vanderbilt PP)
 Gauss-broadening in eV      SIGMA  =   0.20


--------------------------------------------------------------------------------------------------------


  energy-cutoff  :      400.00
  volume of cell :      961.43
      direct lattice vectors                 reciprocal lattice vectors
     9.984611144  0.000000000  0.000000000     0.100154126  0.002058017  0.002285529
    -0.199485023  9.708009344  0.000000000     0.000000000  0.103007729  0.002297582
    -0.221801604 -0.221237922  9.918780390     0.000000000  0.000000000  0.100818847

  length of vectors
     9.984611144  9.710058687  9.923726447     0.100201337  0.103033350  0.100818847


 
 k-points in units of 2pi/SCALE and weight: read from INCAR                         
   0.02503853  0.02626644  0.02635049       0.250
  -0.02503853  0.02523743  0.02520773       0.250
   0.02503853 -0.02523743  0.02520170       0.250
  -0.02503853 -0.02626644  0.02405893       0.250
 
 k-points in reciprocal lattice and weights: read from INCAR                         
   0.25000000  0.25000000  0.25000000       0.250
  -0.25000000  0.25000000  0.25000000       0.250
   0.25000000 -0.25000000  0.25000000       0.250
  -0.25000000 -0.25000000  0.25000000       0.250
 
 position of ions in fractional coordinates (direct lattice) 
   0.53802868  0.40689363  0.36037317
   0.39439607  0.47961547  0.43849477
   0.55191703  0.56539250  0.44261281
   0.52870381  0.41698568  0.53956747
   0.50325833  0.46704003  0.44544367
 
 position of ions in cartesian coordinates  (Angst):
   5.21090659  3.87039897  3.57446231
   3.74495642  4.55909976  4.34933332
   5.29971736  5.39091296  4.39017925
   5.07604265  3.92872808  5.35185119
   4.83287108  4.43547992  4.41825792
 


--------------------------------------------------------------------------------------------------------


 k-point  1 :   0.2500 0.2500 0.2500  plane waves:   17438
 k-point  2 :  -0.2500 0.2500 0.2500  plane waves:   17456
 k-point  3 :   0.2500-0.2500 0.2500  plane waves:   17483
 k-point  4 :  -0.2500-0.2500 0.2500  plane waves:   17454

 maximum and minimum number of plane-waves per node :      4389     4339

 maximum number of plane-waves:     17483
 maximum index in each direction: 
   IXMAX=   16   IYMAX=   16   IZMAX=   15
   IXMIN=  -16   IYMIN=  -16   IZMIN=  -16


 parallel 3D FFT for wavefunctions:
    minimum data exchange during FFTs selected (reduces bandwidth)
 parallel 3D FFT for charge:
    minimum data exchange during FFTs selected (reduces bandwidth)


 total amount of memory used by VASP MPI-rank0    53373. kBytes
=======================================================================

   base      :      30000. kBytes
   nonl-proj :       2595. kBytes
   fftplans  :       7842. kBytes
   grid      :      12367. kBytes
   one-center:          6. kBytes
   wavefun   :        563. kBytes
 
     INWAV:  cpu time    0.0000: real time    0.0000
 Broyden mixing: mesh for mixing (old mesh)
   NGX = 33   NGY = 31   NGZ = 33
  (NGX  =140   NGY  =128   NGZ  =140)
  gives a total of  33759 points

 initial charge density was supplied:
 charge density of overlapping atoms calculated
 number of electron       8.0000000 magnetization 
 keeping initial charge density in first step


--------------------------------------------------------------------------------------------------------


 Maximum index for augmentation-charges          183 (set IRDMAX)


--------------------------------------------------------------------------------------------------------


 First call to EWALD:  gamma=   0.180
 Maximum number of real-space cells 3x 3x 3
 Maximum number of reciprocal cells 3x 3x 3

    FEWALD:  cpu time    0.0015: real time    0.0015


--------------------------------------- Iteration      1(   1)  ---------------------------------------


    POTLOK:  cpu time    0.1220: real time    0.1294
    SETDIJ:  cpu time    0.0030: real time    0.0039
     EDDAV:  cpu time    0.1709: real time    0.1895
       DOS:  cpu time    0.0008: real time    0.0020
    --------------------------------------------
      LOOP:  cpu time    0.2967: real time    0.3248

 eigenvalue-minimisations  :    96
 total energy-change (2. order) : 0.1743247E+02  (-0.1904450E+03)
 number of electron       8.0000000 magnetization 
 augmentation part        8.0000000 magnetization 

 Free energy of the ion-electron system (eV)
  ---------------------------------------------------
  alpha Z        PSCENC =         0.25196812
  Ewald energy   TEWEN  =       130.22912920
  -Hartree energ DENC   =      -243.99722336
  -exchange      EXHF   =         0.00000000
  -V(xc)+E(xc)   XCENC  =        22.08505913
  PAW double counting   =       117.05815612     -117.66307307
  entropy T*S    EENTRO =        -0.00000000
  eigenvalues    EBANDS =       -87.57330241
  atomic energy  EATOM  =       197.04175453
  Solvation  Ediel_sol  =         0.00000000
  ---------------------------------------------------
  free energy    TOTEN  =        17.43246827 eV

  energy without entropy =       17.43246827  energy(sigma->0) =       17.43246827


--------------------------------------------------------------------------------------------------------




--------------------------------------- Iteration      1(   2)  ---------------------------------------


     EDDAV:  cpu time    0.1479: real time    0.1479
       DOS:  cpu time    0.0002: real time    0.0002
    --------------------------------------------
      LOOP:  cpu time    0.1481: real time    0.1481

 eigenvalue-minimisations  :    80
 total energy-change (2. order) :-0.4068639E+02  (-0.4068639E+02)
 number of electron       8.0000000 magnetization 
 augmentation part        8.0000000 magnetization 

 Free energy of the ion-electron system (eV)
  ---------------------------------------------------
  alpha Z        PSCENC =         0.25196812
  Ewald energy   TEWEN  =       130.22912920
  -Hartree energ DENC   =      -243.99722336
  -exchange      EXHF   =         0.00000000
  -V(xc)+E(xc)   XCENC  =        22.08505913
  PAW double counting   =       117.05815612     -117.66307307
  entropy T*S    EENTRO =        -0.00000000
  eigenvalues    EBANDS =      -128.25969126
  atomic energy  EATOM  =       197.04175453
  Solvation  Ediel_sol  =         0.00000000
  ---------------------------------------------------
  free energy    TOTEN  =       -23.25392059 eV

  energy without entropy =      -23.25392059  energy(sigma->0) =      -23.25392059


--------------------------------------------------------------------------------------------------------




--------------------------------------- Iteration      1(   3)  ---------------------------------------


     EDDAV:  cpu time    0.1251: real time    0.1251
       DOS:  cpu time    0.0002: real time    0.0002
    --------------------------------------------
      LOOP:  cpu time    0.1253: real time    0.1253

 eigenvalue-minimisations  :    64
 total energy-change (2. order) :-0.4310672E+01  (-0.4310672E+01)
 number of electron       8.0000000 magnetization 
 augmentation part        8.0000000 magnetization 

 Free energy of the ion-electron system (eV)
  ---------------------------------------------------
  alpha Z        PSCENC =         0.25196812
  Ewald energy   TEWEN  =       130.22912920
  -Hartree energ DENC   =      -243.99722336
  -exchange      EXHF   =         0.00000000
  -V(xc)+E(xc)   XCENC  =        22.08505913
  PAW double counting   =       117.05815612     -117.66307307
  entropy T*S    EENTRO =        -0.00000000
  eigenvalues    EBANDS =      -132.57036323
  atomic energy  EATOM  =       197.04175453
  Solvation  Ediel_sol  =         0.00000000
  ---------------------------------------------------
  free energy    TOTEN  =       -27.56459255 eV

  energy without entropy =      -27.56459255  energy(sigma->0) =      -27.56459255


--------------------------------------------------------------------------------------------------------




--------------------------------------- Iteration      1(   4)  ---------------------------------------


     EDDAV:  cpu time    0.2155: real time    0.2179
       DOS:  cpu time    0.0002: real time    0.0002
    --------------------------------------------
      LOOP:  cpu time    0.2158: real time    0.2181

 eigenvalue-minimisations  :   128
 total energy-change (2. order) :-0.1632863E+00  (-0.1632863E+00)
 number of electron       8.0000000 magnetization 
 augmentation part        8.0000000 magnetization 

 Free energy of the ion-electron system (eV)
  ---------------------------------------------------
  alpha Z        PSCENC =         0.25196812
  Ewald energy   TEWEN  =       130.22912920
  -Hartree energ DENC   =      -243.99722336
  -exchange      EXHF   =         0.00000000
  -V(xc)+E(xc)   XCENC  =        22.08505913
  PAW double counting   =       117.05815612     -117.66307307
  entropy T*S    EENTRO =        -0.00000000
  eigenvalues    EBANDS =      -132.73364952
  atomic energy  EATOM  =       197.04175453
  Solvation  Ediel_sol  =         0.00000000
  ---------------------------------------------------
  free energy    TOTEN  =       -27.72787885 eV

  energy without entropy =      -27.72787885  energy(sigma->0) =      -27.72787885


--------------------------------------------------------------------------------------------------------




--------------------------------------- Iteration      1(   5)  ---------------------------------------


     EDDAV:  cpu time    0.1580: real time    0.1580
       DOS:  cpu time    0.0002: real time    0.0002
    CHARGE:  cpu time    0.0167: real time    0.0167
    MIXING:  cpu time    0.0036: real time    0.0036
    --------------------------------------------
      LOOP:  cpu time    0.1786: real time    0.1786

 eigenvalue-minimisations  :    88
 total energy-change (2. order) :-0.4599434E-04  (-0.4599439E-04)
 number of electron       8.0000002 magnetization 
 augmentation part        0.2303761 magnetization 

 Broyden mixing:
  rms(total) = 0.89725E+00    rms(broyden)= 0.89703E+00
  rms(prec ) = 0.12772E+01
  weight for this iteration     100.00

 Free energy of the ion-electron system (eV)
  ---------------------------------------------------
  alpha Z        PSCENC =         0.25196812
  Ewald energy   TEWEN  =       130.22912920
  -Hartree energ DENC   =      -243.99722336
  -exchange      EXHF   =         0.00000000
  -V(xc)+E(xc)   XCENC  =        22.08505913
  PAW double counting   =       117.05815612     -117.66307307
  entropy T*S    EENTRO =        -0.00000000
  eigenvalues    EBANDS =      -132.73369552
  atomic energy  EATOM  =       197.04175453
  Solvation  Ediel_sol  =         0.00000000
  ---------------------------------------------------
  free energy    TOTEN  =       -27.72792484 eV

  energy without entropy =      -27.72792484  energy(sigma->0) =      -27.72792484


--------------------------------------------------------------------------------------------------------




--------------------------------------- Iteration      1(   6)  ---------------------------------------


    POTLOK:  cpu time    0.1168: real time    0.1168
    SETDIJ:  cpu time    0.0015: real time    0.0015
    EDDIAG:  cpu time    0.0334: real time    0.0421
  RMM-DIIS:  cpu time    0.1278: real time    0.1278
    ORTHCH:  cpu time    0.0018: real time    0.0018
       DOS:  cpu time    0.0002: real time    0.0002
    CHARGE:  cpu time    0.0168: real time    0.0168
    MIXING:  cpu time    0.0043: real time    0.0058
    --------------------------------------------
      LOOP:  cpu time    0.3026: real time    0.3128

 eigenvalue-minimisations  :    64
 total energy-change (2. order) : 0.3057550E+01  (-0.5693883E+00)
 number of electron       8.0000001 magnetization 
 augmentation part        0.2029991 magnetization 

 Broyden mixing:
  rms(total) = 0.44042E+00    rms(broyden)= 0.44033E+00
  rms(prec ) = 0.57503E+00
  weight for this iteration     100.00

 eigenvalues of (default mixing * dielectric matrix)
  average eigenvalue GAMMA=   1.3147
  1.3147

 Free energy of the ion-electron system (eV)
  ---------------------------------------------------
  alpha Z        PSCENC =         0.25196812
  Ewald energy   TEWEN  =       130.22912920
  -Hartree energ DENC   =      -264.27616665
  -exchange      EXHF   =         0.00000000
  -V(xc)+E(xc)   XCENC  =        23.31571434
  PAW double counting   =       243.08905486     -243.87653013
  entropy T*S    EENTRO =        -0.00000000
  eigenvalues    EBANDS =      -110.44529863
  atomic energy  EATOM  =       197.04175453
  Solvation  Ediel_sol  =         0.00000000
  ---------------------------------------------------
  free energy    TOTEN  =       -24.67037437 eV

  energy without entropy =      -24.67037437  energy(sigma->0) =      -24.67037437


--------------------------------------------------------------------------------------------------------




--------------------------------------- Iteration      1(   7)  ---------------------------------------


    POTLOK:  cpu time    0.1192: real time    0.1192
    SETDIJ:  cpu time    0.0015: real time    0.0015
    EDDIAG:  cpu time    0.0308: real time    0.0308
  RMM-DIIS:  cpu time    0.1293: real time    0.1293
    ORTHCH:  cpu time    0.0014: real time    0.0014
       DOS:  cpu time    0.0002: real time    0.0002
    CHARGE:  cpu time    0.0152: real time    0.0152
    MIXING:  cpu time    0.0038: real time    0.0038
    --------------------------------------------
      LOOP:  cpu time    0.3014: real time    0.3014

 eigenvalue-minimisations  :    64
 total energy-change (2. order) : 0.5228158E+00  (-0.1349363E+00)
 number of electron       8.0000001 magnetization 
 augmentation part        0.1919243 magnetization 

 Broyden mixing:
  rms(total) = 0.23261E+00    rms(broyden)= 0.23255E+00
  rms(prec ) = 0.28138E+00
  weight for this iteration     100.00

 eigenvalues of (default mixing * dielectric matrix)
  average eigenvalue GAMMA=   1.8459
  1.4725  2.2193

 Free energy of the ion-electron system (eV)
  ---------------------------------------------------
  alpha Z        PSCENC =         0.25196812
  Ewald energy   TEWEN  =       130.22912920
  -Hartree energ DENC   =      -276.48432599
  -exchange      EXHF   =         0.00000000
  -V(xc)+E(xc)   XCENC  =        24.20772996
  PAW double counting   =       378.11463165     -378.94577789
  entropy T*S    EENTRO =        -0.00000000
  eigenvalues    EBANDS =       -98.56266818
  atomic energy  EATOM  =       197.04175453
  Solvation  Ediel_sol  =         0.00000000
  ---------------------------------------------------
  free energy    TOTEN  =       -24.14755860 eV

  energy without entropy =      -24.14755860  energy(sigma->0) =      -24.14755860


--------------------------------------------------------------------------------------------------------




--------------------------------------- Iteration      1(   8)  ---------------------------------------


    POTLOK:  cpu time    0.1181: real time    0.1181
    SETDIJ:  cpu time    0.0015: real time    0.0015
    EDDIAG:  cpu time    0.0306: real time    0.0306
  RMM-DIIS:  cpu time    0.1271: real time    0.1271
    ORTHCH:  cpu time    0.0013: real time    0.0013
       DOS:  cpu time    0.0002: real time    0.0002
    CHARGE:  cpu time    0.0149: real time    0.0149
    MIXING:  cpu time    0.0040: real time    0.0040
    --------------------------------------------
      LOOP:  cpu time    0.2977: real time    0.2977

 eigenvalue-minimisations  :    64
 total energy-change (2. order) : 0.1485602E+00  (-0.1624206E-01)
 number of electron       8.0000001 magnetization 
 augmentation part        0.1905093 magnetization 

 Broyden mixing:
  rms(total) = 0.22354E-01    rms(broyden)= 0.22330E-01
  rms(prec ) = 0.53504E-01
  weight for this iteration     100.00

 eigenvalues of (default mixing * dielectric matrix)
  average eigenvalue GAMMA=   1.5575
  2.2481  1.0007  1.4237

 Free energy of the ion-electron system (eV)
  ---------------------------------------------------
  alpha Z        PSCENC =         0.25196812
  Ewald energy   TEWEN  =       130.22912920
  -Hartree energ DENC   =      -281.90859781
  -exchange      EXHF   =         0.00000000
  -V(xc)+E(xc)   XCENC  =        24.74542861
  PAW double counting   =       493.38309842     -494.18163897
  entropy T*S    EENTRO =        -0.00000000
  eigenvalues    EBANDS =       -93.56014045
  atomic energy  EATOM  =       197.04175453
  Solvation  Ediel_sol  =         0.00000000
  ---------------------------------------------------
  free energy    TOTEN  =       -23.99899836 eV

  energy without entropy =      -23.99899836  energy(sigma->0) =      -23.99899836


--------------------------------------------------------------------------------------------------------




--------------------------------------- Iteration      1(   9)  ---------------------------------------


    POTLOK:  cpu time    0.1162: real time    0.1162
    SETDIJ:  cpu time    0.0016: real time    0.0015
    EDDIAG:  cpu time    0.0292: real time    0.0292
  RMM-DIIS:  cpu time    0.1255: real time    0.1255
    ORTHCH:  cpu time    0.0013: real time    0.0013
       DOS:  cpu time    0.0002: real time    0.0002
    CHARGE:  cpu time    0.0155: real time    0.0155
    MIXING:  cpu time    0.0042: real time    0.0042
    --------------------------------------------
      LOOP:  cpu time    0.2936: real time    0.2936

 eigenvalue-minimisations  :    64
 total energy-change (2. order) : 0.5753066E-02  (-0.1137011E-02)
 number of electron       8.0000001 magnetization 
 augmentation part        0.1899187 magnetization 

 Broyden mixing:
  rms(total) = 0.19901E-01    rms(broyden)= 0.19897E-01
  rms(prec ) = 0.41194E-01
  weight for this iteration     100.00

 eigenvalues of (default mixing * dielectric matrix)
  average eigenvalue GAMMA=   2.1088
  3.1332  2.9091  1.0024  1.3904

 Free energy of the ion-electron system (eV)
  ---------------------------------------------------
  alpha Z        PSCENC =         0.25196812
  Ewald energy   TEWEN  =       130.22912920
  -Hartree energ DENC   =      -283.19737826
  -exchange      EXHF   =         0.00000000
  -V(xc)+E(xc)   XCENC  =        24.81768587
  PAW double counting   =       497.59964166     -498.40072307
  entropy T*S    EENTRO =        -0.00000000
  eigenvalues    EBANDS =       -92.33532333
  atomic energy  EATOM  =       197.04175453
  Solvation  Ediel_sol  =         0.00000000
  ---------------------------------------------------
  free energy    TOTEN  =       -23.99324529 eV

  energy without entropy =      -23.99324529  energy(sigma->0) =      -23.99324529


--------------------------------------------------------------------------------------------------------




--------------------------------------- Iteration      1(  10)  ---------------------------------------


    POTLOK:  cpu time    0.1141: real time    0.1141
    SETDIJ:  cpu time    0.0014: real time    0.0014
    EDDIAG:  cpu time    0.0292: real time    0.0292
  RMM-DIIS:  cpu time    0.1291: real time    0.1292
    ORTHCH:  cpu time    0.0013: real time    0.0014
       DOS:  cpu time    0.0003: real time    0.0017
    CHARGE:  cpu time    0.0142: real time    0.0142
    MIXING:  cpu time    0.0044: real time    0.0057
    --------------------------------------------
      LOOP:  cpu time    0.2940: real time    0.2967

 eigenvalue-minimisations  :    64
 total energy-change (2. order) : 0.5825806E-02  (-0.2371219E-02)
 number of electron       8.0000001 magnetization 
 augmentation part        0.1888761 magnetization 

 Broyden mixing:
  rms(total) = 0.28233E-01    rms(broyden)= 0.28231E-01
  rms(prec ) = 0.35804E-01
  weight for this iteration     100.00

 eigenvalues of (default mixing * dielectric matrix)
  average eigenvalue GAMMA=   1.7792
  3.0645  2.4556  1.2027  1.2027  0.9706

 Free energy of the ion-electron system (eV)
  ---------------------------------------------------
  alpha Z        PSCENC =         0.25196812
  Ewald energy   TEWEN  =       130.22912920
  -Hartree energ DENC   =      -285.40070908
  -exchange      EXHF   =         0.00000000
  -V(xc)+E(xc)   XCENC  =        24.88646701
  PAW double counting   =       480.67662740     -481.48130734
  entropy T*S    EENTRO =        -0.00000000
  eigenvalues    EBANDS =       -90.19134932
  atomic energy  EATOM  =       197.04175453
  Solvation  Ediel_sol  =         0.00000000
  ---------------------------------------------------
  free energy    TOTEN  =       -23.98741948 eV

  energy without entropy =      -23.98741948  energy(sigma->0) =      -23.98741948


--------------------------------------------------------------------------------------------------------




--------------------------------------- Iteration      1(  11)  ---------------------------------------


    POTLOK:  cpu time    0.1120: real time    0.1120
    SETDIJ:  cpu time    0.0016: real time    0.0016
    EDDIAG:  cpu time    0.0295: real time    0.0295
  RMM-DIIS:  cpu time    0.1273: real time    0.1273
    ORTHCH:  cpu time    0.0013: real time    0.0013
       DOS:  cpu time    0.0002: real time    0.0002
    CHARGE:  cpu time    0.0161: real time    0.0161
    MIXING:  cpu time    0.0043: real time    0.0043
    --------------------------------------------
      LOOP:  cpu time    0.2924: real time    0.2924

 eigenvalue-minimisations  :    64
 total energy-change (2. order) :-0.5093592E-03  (-0.6569090E-03)
 number of electron       8.0000001 magnetization 
 augmentation part        0.1891915 magnetization 

 Broyden mixing:
  rms(total) = 0.65715E-02    rms(broyden)= 0.65684E-02
  rms(prec ) = 0.12969E-01
  weight for this iteration     100.00

 eigenvalues of (default mixing * dielectric matrix)
  average eigenvalue GAMMA=   2.2711
  4.7646  3.1117  2.4342  1.3155  1.0003  1.0003

 Free energy of the ion-electron system (eV)
  ---------------------------------------------------
  alpha Z        PSCENC =         0.25196812
  Ewald energy   TEWEN  =       130.22912920
  -Hartree energ DENC   =      -285.30850608
  -exchange      EXHF   =         0.00000000
  -V(xc)+E(xc)   XCENC  =        24.90073387
  PAW double counting   =       490.12438482     -490.92201722
  entropy T*S    EENTRO =        -0.00000000
  eigenvalues    EBANDS =       -90.30537608
  atomic energy  EATOM  =       197.04175453
  Solvation  Ediel_sol  =         0.00000000
  ---------------------------------------------------
  free energy    TOTEN  =       -23.98792884 eV

  energy without entropy =      -23.98792884  energy(sigma->0) =      -23.98792884


--------------------------------------------------------------------------------------------------------




--------------------------------------- Iteration      1(  12)  ---------------------------------------


    POTLOK:  cpu time    0.1065: real time    0.1065
    SETDIJ:  cpu time    0.0016: real time    0.0016
    EDDIAG:  cpu time    0.0297: real time    0.0297
  RMM-DIIS:  cpu time    0.1259: real time    0.1259
    ORTHCH:  cpu time    0.0013: real time    0.0013
       DOS:  cpu time    0.0002: real time    0.0002
    CHARGE:  cpu time    0.0149: real time    0.0149
    MIXING:  cpu time    0.0043: real time    0.0043
    --------------------------------------------
      LOOP:  cpu time    0.2843: real time    0.2843

 eigenvalue-minimisations  :    64
 total energy-change (2. order) :-0.9991897E-02  (-0.4340130E-03)
 number of electron       8.0000001 magnetization 
 augmentation part        0.1894572 magnetization 

 Broyden mixing:
  rms(total) = 0.12943E-01    rms(broyden)= 0.12942E-01
  rms(prec ) = 0.16874E-01
  weight for this iteration     100.00

 eigenvalues of (default mixing * dielectric matrix)
  average eigenvalue GAMMA=   2.0150
  4.7766  2.9204  2.4388  1.2673  0.9888  0.9888  0.7239

 Free energy of the ion-electron system (eV)
  ---------------------------------------------------
  alpha Z        PSCENC =         0.25196812
  Ewald energy   TEWEN  =       130.22912920
  -Hartree energ DENC   =      -285.48850492
  -exchange      EXHF   =         0.00000000
  -V(xc)+E(xc)   XCENC  =        24.89311693
  PAW double counting   =       487.62623319     -488.42198706
  entropy T*S    EENTRO =        -0.00000000
  eigenvalues    EBANDS =       -90.12963072
  atomic energy  EATOM  =       197.04175453
  Solvation  Ediel_sol  =         0.00000000
  ---------------------------------------------------
  free energy    TOTEN  =       -23.99792074 eV

  energy without entropy =      -23.99792074  energy(sigma->0) =      -23.99792074


--------------------------------------------------------------------------------------------------------




--------------------------------------- Iteration      1(  13)  ---------------------------------------


    POTLOK:  cpu time    0.1061: real time    0.1061
    SETDIJ:  cpu time    0.0015: real time    0.0015
    EDDIAG:  cpu time    0.0290: real time    0.0290
  RMM-DIIS:  cpu time    0.1289: real time    0.1289
    ORTHCH:  cpu time    0.0013: real time    0.0013
       DOS:  cpu time    0.0002: real time    0.0002
    CHARGE:  cpu time    0.0149: real time    0.0149
    MIXING:  cpu time    0.0046: real time    0.0046
    --------------------------------------------
      LOOP:  cpu time    0.2864: real time    0.2864

 eigenvalue-minimisations  :    64
 total energy-change (2. order) :-0.3725840E-03  (-0.7937472E-04)
 number of electron       8.0000001 magnetization 
 augmentation part        0.1892435 magnetization 

 Broyden mixing:
  rms(total) = 0.60747E-02    rms(broyden)= 0.60746E-02
  rms(prec ) = 0.80081E-02
  weight for this iteration     100.00

 eigenvalues of (default mixing * dielectric matrix)
  average eigenvalue GAMMA=   2.3872
  6.0309  3.9289  2.5212  2.2902  1.2272  1.2272  0.9974  0.8746

 Free energy of the ion-electron system (eV)
  ---------------------------------------------------
  alpha Z        PSCENC =         0.25196812
  Ewald energy   TEWEN  =       130.22912920
  -Hartree energ DENC   =      -285.67096967
  -exchange      EXHF   =         0.00000000
  -V(xc)+E(xc)   XCENC  =        24.89864272
  PAW double counting   =       487.44402688     -488.24210209
  entropy T*S    EENTRO =        -0.00000000
  eigenvalues    EBANDS =       -89.95074301
  atomic energy  EATOM  =       197.04175453
  Solvation  Ediel_sol  =         0.00000000
  ---------------------------------------------------
  free energy    TOTEN  =       -23.99829332 eV

  energy without entropy =      -23.99829332  energy(sigma->0) =      -23.99829332


--------------------------------------------------------------------------------------------------------




--------------------------------------- Iteration      1(  14)  ---------------------------------------


    POTLOK:  cpu time    0.1058: real time    0.1058
    SETDIJ:  cpu time    0.0015: real time    0.0015
    EDDIAG:  cpu time    0.0289: real time    0.0289
  RMM-DIIS:  cpu time    0.1256: real time    0.1256
    ORTHCH:  cpu time    0.0013: real time    0.0013
       DOS:  cpu time    0.0002: real time    0.0002
    CHARGE:  cpu time    0.0149: real time    0.0149
    MIXING:  cpu time    0.0046: real time    0.0046
    --------------------------------------------
      LOOP:  cpu time    0.2828: real time    0.2828

 eigenvalue-minimisations  :    64
 total energy-change (2. order) :-0.2778573E-02  (-0.1860504E-03)
 number of electron       8.0000001 magnetization 
 augmentation part        0.1890403 magnetization 

 Broyden mixing:
  rms(total) = 0.40527E-02    rms(broyden)= 0.40506E-02
  rms(prec ) = 0.53209E-02
  weight for this iteration     100.00

 eigenvalues of (default mixing * dielectric matrix)
  average eigenvalue GAMMA=   2.3359
  6.4347  4.0941  2.4269  2.4269  1.2763  1.2763  1.1864  1.0028  0.8988

 Free energy of the ion-electron system (eV)
  ---------------------------------------------------
  alpha Z        PSCENC =         0.25196812
  Ewald energy   TEWEN  =       130.22912920
  -Hartree energ DENC   =      -285.72314000
  -exchange      EXHF   =         0.00000000
  -V(xc)+E(xc)   XCENC  =        24.89085114
  PAW double counting   =       486.48763569     -487.28780956
  entropy T*S    EENTRO =        -0.00000000
  eigenvalues    EBANDS =       -89.89146102
  atomic energy  EATOM  =       197.04175453
  Solvation  Ediel_sol  =         0.00000000
  ---------------------------------------------------
  free energy    TOTEN  =       -24.00107190 eV

  energy without entropy =      -24.00107190  energy(sigma->0) =      -24.00107190


--------------------------------------------------------------------------------------------------------




--------------------------------------- Iteration      1(  15)  ---------------------------------------


    POTLOK:  cpu time    0.1052: real time    0.1052
    SETDIJ:  cpu time    0.0016: real time    0.0016
    EDDIAG:  cpu time    0.0292: real time    0.0292
  RMM-DIIS:  cpu time    0.1278: real time    0.1278
    ORTHCH:  cpu time    0.0013: real time    0.0013
       DOS:  cpu time    0.0002: real time    0.0002
    CHARGE:  cpu time    0.0149: real time    0.0149
    MIXING:  cpu time    0.0049: real time    0.0049
    --------------------------------------------
      LOOP:  cpu time    0.2850: real time    0.2850

 eigenvalue-minimisations  :    64
 total energy-change (2. order) :-0.2367617E-03  (-0.1622486E-04)
 number of electron       8.0000001 magnetization 
 augmentation part        0.1890644 magnetization 

 Broyden mixing:
  rms(total) = 0.10313E-02    rms(broyden)= 0.10312E-02
  rms(prec ) = 0.13651E-02
  weight for this iteration     100.00

 eigenvalues of (default mixing * dielectric matrix)
  average eigenvalue GAMMA=   2.5230
  7.3964  4.8458  2.9685  2.5188  1.9784  1.3107  1.3107  1.0060  1.0060  0.8892

 Free energy of the ion-electron system (eV)
  ---------------------------------------------------
  alpha Z        PSCENC =         0.25196812
  Ewald energy   TEWEN  =       130.22912920
  -Hartree energ DENC   =      -285.63710951
  -exchange      EXHF   =         0.00000000
  -V(xc)+E(xc)   XCENC  =        24.88713359
  PAW double counting   =       486.60197961     -487.40090434
  entropy T*S    EENTRO =        -0.00000000
  eigenvalues    EBANDS =       -89.97525985
  atomic energy  EATOM  =       197.04175453
  Solvation  Ediel_sol  =         0.00000000
  ---------------------------------------------------
  free energy    TOTEN  =       -24.00130866 eV

  energy without entropy =      -24.00130866  energy(sigma->0) =      -24.00130866


--------------------------------------------------------------------------------------------------------




--------------------------------------- Iteration      1(  16)  ---------------------------------------


    POTLOK:  cpu time    0.1048: real time    0.1048
    SETDIJ:  cpu time    0.0015: real time    0.0015
    EDDIAG:  cpu time    0.0287: real time    0.0287
  RMM-DIIS:  cpu time    0.1278: real time    0.1279
    ORTHCH:  cpu time    0.0013: real time    0.0013
       DOS:  cpu time    0.0002: real time    0.0002
    CHARGE:  cpu time    0.0148: real time    0.0148
    MIXING:  cpu time    0.0049: real time    0.0049
    --------------------------------------------
      LOOP:  cpu time    0.2843: real time    0.2843

 eigenvalue-minimisations  :    64
 total energy-change (2. order) :-0.1898207E-03  (-0.6382096E-05)
 number of electron       8.0000001 magnetization 
 augmentation part        0.1891029 magnetization 

 Broyden mixing:
  rms(total) = 0.78677E-03    rms(broyden)= 0.78640E-03
  rms(prec ) = 0.10739E-02
  weight for this iteration     100.00

 eigenvalues of (default mixing * dielectric matrix)
  average eigenvalue GAMMA=   2.4739
  7.5460  4.6155  3.4850  2.3288  2.3288  1.3141  1.3141  1.2971  0.9171  0.9613
  1.1048

 Free energy of the ion-electron system (eV)
  ---------------------------------------------------
  alpha Z        PSCENC =         0.25196812
  Ewald energy   TEWEN  =       130.22912920
  -Hartree energ DENC   =      -285.63282530
  -exchange      EXHF   =         0.00000000
  -V(xc)+E(xc)   XCENC  =        24.88761111
  PAW double counting   =       486.66685101     -487.46544584
  entropy T*S    EENTRO =        -0.00000000
  eigenvalues    EBANDS =       -89.98054130
  atomic energy  EATOM  =       197.04175453
  Solvation  Ediel_sol  =         0.00000000
  ---------------------------------------------------
  free energy    TOTEN  =       -24.00149848 eV

  energy without entropy =      -24.00149848  energy(sigma->0) =      -24.00149848


--------------------------------------------------------------------------------------------------------




--------------------------------------- Iteration      1(  17)  ---------------------------------------


    POTLOK:  cpu time    0.1069: real time    0.1069
    SETDIJ:  cpu time    0.0016: real time    0.0015
    EDDIAG:  cpu time    0.0303: real time    0.0303
  RMM-DIIS:  cpu time    0.1286: real time    0.1286
    ORTHCH:  cpu time    0.0013: real time    0.0013
       DOS:  cpu time    0.0002: real time    0.0002
    CHARGE:  cpu time    0.0150: real time    0.0150
    MIXING:  cpu time    0.0050: real time    0.0050
    --------------------------------------------
      LOOP:  cpu time    0.2886: real time    0.2886

 eigenvalue-minimisations  :    64
 total energy-change (2. order) :-0.2991530E-04  (-0.2995665E-05)
 number of electron       8.0000001 magnetization 
 augmentation part        0.1890649 magnetization 

 Broyden mixing:
  rms(total) = 0.43953E-03    rms(broyden)= 0.43946E-03
  rms(prec ) = 0.63483E-03
  weight for this iteration     100.00

 eigenvalues of (default mixing * dielectric matrix)
  average eigenvalue GAMMA=   2.5520
  8.2480  5.1422  3.9278  2.5185  2.5185  1.8646  1.3102  1.3102  1.0283  0.9571
  0.9266  0.8721

 Free energy of the ion-electron system (eV)
  ---------------------------------------------------
  alpha Z        PSCENC =         0.25196812
  Ewald energy   TEWEN  =       130.22912920
  -Hartree energ DENC   =      -285.67931372
  -exchange      EXHF   =         0.00000000
  -V(xc)+E(xc)   XCENC  =        24.88992861
  PAW double counting   =       486.67193348     -487.47091701
  entropy T*S    EENTRO =        -0.00000000
  eigenvalues    EBANDS =       -89.93601160
  atomic energy  EATOM  =       197.04175453
  Solvation  Ediel_sol  =         0.00000000
  ---------------------------------------------------
  free energy    TOTEN  =       -24.00152839 eV

  energy without entropy =      -24.00152839  energy(sigma->0) =      -24.00152839


--------------------------------------------------------------------------------------------------------




--------------------------------------- Iteration      1(  18)  ---------------------------------------


    POTLOK:  cpu time    0.1090: real time    0.1091
    SETDIJ:  cpu time    0.0015: real time    0.0015
    EDDIAG:  cpu time    0.0292: real time    0.0292
  RMM-DIIS:  cpu time    0.1222: real time    0.1222
    ORTHCH:  cpu time    0.0013: real time    0.0013
       DOS:  cpu time    0.0002: real time    0.0002
    CHARGE:  cpu time    0.0147: real time    0.0147
    MIXING:  cpu time    0.0052: real time    0.0052
    --------------------------------------------
      LOOP:  cpu time    0.2833: real time    0.2833

 eigenvalue-minimisations  :    60
 total energy-change (2. order) :-0.1268941E-04  (-0.3794845E-06)
 number of electron       8.0000001 magnetization 
 augmentation part        0.1890774 magnetization 

 Broyden mixing:
  rms(total) = 0.66201E-04    rms(broyden)= 0.66179E-04
  rms(prec ) = 0.92078E-04
  weight for this iteration     100.00

 eigenvalues of (default mixing * dielectric matrix)
  average eigenvalue GAMMA=   2.5746
  8.2713  5.3727  3.8209  3.1168  2.4307  2.1891  1.7734  1.2969  1.2969  1.0375
  0.9877  0.9877  0.8886

 Free energy of the ion-electron system (eV)
  ---------------------------------------------------
  alpha Z        PSCENC =         0.25196812
  Ewald energy   TEWEN  =       130.22912920
  -Hartree energ DENC   =      -285.66115682
  -exchange      EXHF   =         0.00000000
  -V(xc)+E(xc)   XCENC  =        24.88898815
  PAW double counting   =       486.61001159     -487.40883270
  entropy T*S    EENTRO =        -0.00000000
  eigenvalues    EBANDS =       -89.95340315
  atomic energy  EATOM  =       197.04175453
  Solvation  Ediel_sol  =         0.00000000
  ---------------------------------------------------
  free energy    TOTEN  =       -24.00154108 eV

  energy without entropy =      -24.00154108  energy(sigma->0) =      -24.00154108


--------------------------------------------------------------------------------------------------------




--------------------------------------- Iteration      1(  19)  ---------------------------------------


    POTLOK:  cpu time    0.1115: real time    0.1115
    SETDIJ:  cpu time    0.0015: real time    0.0014
    EDDIAG:  cpu time    0.0288: real time    0.0288
  RMM-DIIS:  cpu time    0.1010: real time    0.1010
    ORTHCH:  cpu time    0.0013: real time    0.0013
       DOS:  cpu time    0.0002: real time    0.0002
    CHARGE:  cpu time    0.0148: real time    0.0148
    MIXING:  cpu time    0.0053: real time    0.0053
    --------------------------------------------
      LOOP:  cpu time    0.2644: real time    0.2644

 eigenvalue-minimisations  :    48
 total energy-change (2. order) :-0.2948192E-05  (-0.1878393E-07)
 number of electron       8.0000001 magnetization 
 augmentation part        0.1890791 magnetization 

 Broyden mixing:
  rms(total) = 0.21401E-04    rms(broyden)= 0.21377E-04
  rms(prec ) = 0.36032E-04
  weight for this iteration     100.00

 eigenvalues of (default mixing * dielectric matrix)
  average eigenvalue GAMMA=   2.5314
  8.3408  5.4507  4.0678  3.3614  2.4307  2.4307  1.9202  1.2997  1.2997  0.8918
  1.0221  0.9761  0.9737  0.9737

 Free energy of the ion-electron system (eV)
  ---------------------------------------------------
  alpha Z        PSCENC =         0.25196812
  Ewald energy   TEWEN  =       130.22912920
  -Hartree energ DENC   =      -285.65932015
  -exchange      EXHF   =         0.00000000
  -V(xc)+E(xc)   XCENC  =        24.88880073
  PAW double counting   =       486.60620027     -487.40502721
  entropy T*S    EENTRO =        -0.00000000
  eigenvalues    EBANDS =       -89.95504952
  atomic energy  EATOM  =       197.04175453
  Solvation  Ediel_sol  =         0.00000000
  ---------------------------------------------------
  free energy    TOTEN  =       -24.00154403 eV

  energy without entropy =      -24.00154403  energy(sigma->0) =      -24.00154403


--------------------------------------------------------------------------------------------------------




--------------------------------------- Iteration      1(  20)  ---------------------------------------


    POTLOK:  cpu time    0.1103: real time    0.1104
    SETDIJ:  cpu time    0.0017: real time    0.0017
    EDDIAG:  cpu time    0.0290: real time    0.0290
  RMM-DIIS:  cpu time    0.0932: real time    0.0933
    ORTHCH:  cpu time    0.0013: real time    0.0013
       DOS:  cpu time    0.0002: real time    0.0002
    CHARGE:  cpu time    0.0149: real time    0.0149
    MIXING:  cpu time    0.0055: real time    0.0055
    --------------------------------------------
      LOOP:  cpu time    0.2562: real time    0.2562

 eigenvalue-minimisations  :    40
 total energy-change (2. order) :-0.1185741E-05  (-0.4134309E-08)
 number of electron       8.0000001 magnetization 
 augmentation part        0.1890796 magnetization 

 Broyden mixing:
  rms(total) = 0.10755E-04    rms(broyden)= 0.10750E-04
  rms(prec ) = 0.18783E-04
  weight for this iteration     100.00

 eigenvalues of (default mixing * dielectric matrix)
  average eigenvalue GAMMA=   2.5485
  8.3611  5.4736  4.2514  3.4463  2.8184  2.4729  2.1562  1.7486  1.3006  1.3006
  0.8874  0.9902  0.9902  1.0148  1.0148

 Free energy of the ion-electron system (eV)
  ---------------------------------------------------
  alpha Z        PSCENC =         0.25196812
  Ewald energy   TEWEN  =       130.22912920
  -Hartree energ DENC   =      -285.65947133
  -exchange      EXHF   =         0.00000000
  -V(xc)+E(xc)   XCENC  =        24.88876743
  PAW double counting   =       486.60604670     -487.40488268
  entropy T*S    EENTRO =        -0.00000000
  eigenvalues    EBANDS =       -89.95485717
  atomic energy  EATOM  =       197.04175453
  Solvation  Ediel_sol  =         0.00000000
  ---------------------------------------------------
  free energy    TOTEN  =       -24.00154522 eV

  energy without entropy =      -24.00154522  energy(sigma->0) =      -24.00154522


--------------------------------------------------------------------------------------------------------




--------------------------------------- Iteration      1(  21)  ---------------------------------------


    POTLOK:  cpu time    0.1128: real time    0.1128
    SETDIJ:  cpu time    0.0015: real time    0.0015
    EDDIAG:  cpu time    0.0303: real time    0.0303
  RMM-DIIS:  cpu time    0.0922: real time    0.0922
    ORTHCH:  cpu time    0.0014: real time    0.0014
       DOS:  cpu time    0.0002: real time    0.0002
    --------------------------------------------
      LOOP:  cpu time    0.2383: real time    0.2383

 eigenvalue-minimisations  :    36
 total energy-change (2. order) :-0.5918658E-06  (-0.2769237E-08)
 number of electron       8.0000001 magnetization 
 augmentation part        0.1890796 magnetization 

 Free energy of the ion-electron system (eV)
  ---------------------------------------------------
  alpha Z        PSCENC =         0.25196812
  Ewald energy   TEWEN  =       130.22912920
  -Hartree energ DENC   =      -285.65921861
  -exchange      EXHF   =         0.00000000
  -V(xc)+E(xc)   XCENC  =        24.88877697
  PAW double counting   =       486.60946687     -487.40829648
  entropy T*S    EENTRO =        -0.00000000
  eigenvalues    EBANDS =       -89.95512640
  atomic energy  EATOM  =       197.04175453
  Solvation  Ediel_sol  =         0.00000000
  ---------------------------------------------------
  free energy    TOTEN  =       -24.00154581 eV

  energy without entropy =      -24.00154581  energy(sigma->0) =      -24.00154581


--------------------------------------------------------------------------------------------------------




 average (electrostatic) potential at core
  the test charge radii are     0.5201  0.6991
  (the norm of the test charge is              1.0000)
       1 -41.5738       2 -41.4714       3 -41.7336       4 -41.5298       5 -57.8761
 
 
 
 E-fermi :  -8.2646     XC(G=0):  -0.7172     alpha+bet : -0.2191


 k-point     1 :       0.2500    0.2500    0.2500
  band No.  band energies     occupation 
      1     -16.9824      2.00000
      2      -9.4477      2.00000
      3      -9.2980      2.00000
      4      -9.2493      2.00000
      5      -0.2863      0.00000
      6       0.5850      0.00000
      7       0.6716      0.00000
      8       0.7104      0.00000

 k-point     2 :      -0.2500    0.2500    0.2500
  band No.  band energies     occupation 
      1     -16.9824      2.00000
      2      -9.4478      2.00000
      3      -9.2980      2.00000
      4      -9.2493      2.00000
      5      -0.2951      0.00000
      6       0.5974      0.00000
      7       0.6948      0.00000
      8       0.7296      0.00000

 k-point     3 :       0.2500   -0.2500    0.2500
  band No.  band energies     occupation 
      1     -16.9824      2.00000
      2      -9.4478      2.00000
      3      -9.2982      2.00000
      4      -9.2493      2.00000
      5      -0.2949      0.00000
      6       0.5926      0.00000
      7       0.6866      0.00000
      8       0.7428      0.00000

 k-point     4 :      -0.2500   -0.2500    0.2500
  band No.  band energies     occupation 
      1     -16.9824      2.00000
      2      -9.4478      2.00000
      3      -9.2981      2.00000
      4      -9.2493      2.00000
      5      -0.2957      0.00000
      6       0.6010      0.00000
      7       0.6967      0.00000
      8       0.7330      0.00000


--------------------------------------------------------------------------------------------------------


 soft charge-density along one line, spin component           1
         0         1         2         3         4         5         6         7         8         9
 total charge-density along one line
 
 pseudopotential strength for first ion, spin component:           1
 -2.341  -4.035  -0.001  -0.001   0.001
 -4.035  -6.867  -0.003  -0.004   0.002
 -0.001  -0.003  -0.337   0.002  -0.001
 -0.001  -0.004   0.002  -0.335  -0.001
  0.001   0.002  -0.001  -0.001  -0.338
 total augmentation occupancy for first ion, spin component:           1
  3.593  -0.645   0.231   0.347  -0.156
 -0.645   0.130  -0.043  -0.064   0.028
  0.231  -0.043   0.022   0.019  -0.008
  0.347  -0.064   0.019   0.037  -0.013
 -0.156   0.028  -0.008  -0.013   0.015


------------------------ aborting loop because EDIFF is reached ----------------------------------------


    CHARGE:  cpu time    0.0147: real time    0.0147
    FORLOC:  cpu time    0.0101: real time    0.0101
    FORNL :  cpu time    0.0165: real time    0.0165
    STRESS:  cpu time    0.1314: real time    0.1321
    FORCOR:  cpu time    0.1121: real time    0.1121
    FORHAR:  cpu time    0.0363: real time    0.0363
    MIXING:  cpu time    0.0067: real time    0.0067
    OFIELD:  cpu time    0.0000: real time    0.0000

  FORCE on cell =-STRESS in cart. coord.  units (eV):
  Direction    XX          YY          ZZ          XY          YZ          ZX
  --------------------------------------------------------------------------------------
  Alpha Z     0.25197     0.25197     0.25197
  Ewald      42.35680    44.67207    43.20020    -0.04786    -1.56463    -2.25277
  Hartree    94.17435    96.67534    94.81060    -0.49824    -0.68419    -0.80911
  E(xc)     -27.36296   -27.38102   -27.36498    -0.00328    -0.00759    -0.00923
  Local    -195.23571  -199.80461  -196.60932     0.79818     2.05208     2.67534
  n-local   -16.18811   -16.30346   -16.20761    -0.04613    -0.01477     0.00746
  augment     0.11110     0.10607     0.10981    -0.00321     0.00120     0.00302
  Kinetic   101.73873   102.72125   101.85028     0.19195     0.39988     0.43908
  Fock        0.00000     0.00000     0.00000     0.00000     0.00000     0.00000
  -------------------------------------------------------------------------------------
  Total      -0.15382     0.93761     0.04095     0.39141     0.18197     0.05380
  in kB      -0.25634     1.56248     0.06824     0.65226     0.30325     0.08965
  external pressure =        0.46 kB  Pullay stress =        0.00 kB

  kinetic pressure (ideal gas correction) =      0.00 kB
  total pressure  =      0.46 kB
  Total+kin.    -0.256       1.562       0.068       0.652       0.303       0.090

 VOLUME and BASIS-vectors are now :
 -----------------------------------------------------------------------------
  energy-cutoff  :      400.00
  volume of cell :      961.43
      direct lattice vectors                 reciprocal lattice vectors
     9.984611144  0.000000000  0.000000000     0.100154126  0.002058017  0.002285529
    -0.199485023  9.708009344  0.000000000     0.000000000  0.103007729  0.002297582
    -0.221801604 -0.221237922  9.918780390     0.000000000  0.000000000  0.100818847

  length of vectors
     9.984611144  9.710058687  9.923726447     0.100201337  0.103033350  0.100818847


 FORCES acting on ions
    electron-ion (+dipol)            ewald-force                    non-local-force                 convergence-correction
 -----------------------------------------------------------------------------------------------
   -.186E+02 0.281E+02 0.417E+02   0.207E+02 -.314E+02 -.465E+02   -.201E+01 0.293E+01 0.443E+01   0.457E-04 -.388E-04 -.858E-04
   0.526E+02 -.588E+01 0.331E+01   -.580E+02 0.646E+01 -.371E+01   0.544E+01 -.626E+00 0.327E+00   -.107E-03 0.220E-04 -.117E-04
   -.239E+02 -.490E+02 0.138E+01   0.270E+02 0.555E+02 -.146E+01   -.264E+01 -.538E+01 0.189E+00   0.491E-04 0.842E-04 -.708E-05
   -.118E+02 0.248E+02 -.457E+02   0.132E+02 -.276E+02 0.507E+02   -.124E+01 0.260E+01 -.480E+01   0.346E-04 -.371E-04 0.932E-04
   0.239E+01 0.251E+01 -.859E+00   -.284E+01 -.296E+01 0.996E+00   -.141E+00 -.102E+00 -.248E-01   0.614E-04 0.826E-04 -.321E-04
 -----------------------------------------------------------------------------------------------
   0.593E+00 0.574E+00 -.127E+00   -.533E-14 0.711E-14 0.000E+00   -.594E+00 -.574E+00 0.127E+00   0.838E-04 0.113E-03 -.434E-04
 
 
 POSITION                                       TOTAL-FORCE (eV/Angst)
 -----------------------------------------------------------------------------------
      5.21091      3.87040      3.57446         0.017893     -0.389111     -0.318376
      3.74496      4.55910      4.34933         0.010508     -0.047593     -0.075751
      5.29972      5.39091      4.39018         0.470820      1.116048      0.107319
      5.07604      3.92873      5.35185         0.089632     -0.123708      0.174633
      4.83287      4.43548      4.41826        -0.589069     -0.554739      0.112212
 -----------------------------------------------------------------------------------
    total drift:                               -0.000216      0.000898      0.000036


--------------------------------------------------------------------------------------------------------



  FREE ENERGIE OF THE ION-ELECTRON SYSTEM (eV)
  ---------------------------------------------------
  free  energy   TOTEN  =       -24.00154581 eV

  energy  without entropy=      -24.00154581  energy(sigma->0) =      -24.00154581
 


--------------------------------------------------------------------------------------------------------


    POTLOK:  cpu time    0.1168: real time    0.1168


--------------------------------------------------------------------------------------------------------


           RANDOM_SEED =         172270062                0                0
           RANDOM_SEED =         172270062               30                0
   IONSTEP:  cpu time    0.0028: real time    0.0060

  ENERGY OF THE ELECTRON-ION-THERMOSTAT SYSTEM (eV)
  ---------------------------------------------------
% ion-electron   TOTEN  =       -24.001546  see above
  kinetic energy EKIN   =         0.000558
  kin. lattice  EKIN_LAT=         0.000000  (temperature    1.08 K)
  nose potential ES     =         0.000000
  nose kinetic   EPS    =         0.000000
  ---------------------------------------------------
  total energy   ETOTAL =       -24.000988 eV

  maximum distance moved by ions :      0.30E-03

    WAVPRE:  cpu time    0.0337: real time    0.0337
    FEWALD:  cpu time    0.0005: real time    0.0005
    ORTHCH:  cpu time    0.0075: real time    0.0075
     LOOP+:  cpu time    5.9928: real time    6.0419


--------------------------------------- Iteration      2(   1)  ---------------------------------------


    POTLOK:  cpu time    0.1143: real time    0.1143
    SETDIJ:  cpu time    0.0016: real time    0.0016
     EDDAV:  cpu time    0.1669: real time    0.1669
       DOS:  cpu time    0.0002: real time    0.0002
    CHARGE:  cpu time    0.0147: real time    0.0147
    MIXING:  cpu time    0.0037: real time    0.0037
    --------------------------------------------
      LOOP:  cpu time    0.3014: real time    0.3014

 eigenvalue-minimisations  :    96
 total energy-change (2. order) :-0.4290029E-02  (-0.5219058E-03)
 number of electron       8.0000001 magnetization 
 augmentation part        0.1886063 magnetization 

 Broyden mixing:
  rms(total) = 0.40760E-02    rms(broyden)= 0.40735E-02
  rms(prec ) = 0.51934E-02
  weight for this iteration     100.00

 Free energy of the ion-electron system (eV)
  ---------------------------------------------------
  alpha Z        PSCENC =         0.25196812
  Ewald energy   TEWEN  =       129.95238865
  -Hartree energ DENC   =      -285.50458782
  -exchange      EXHF   =         0.00000000
  -V(xc)+E(xc)   XCENC  =        24.88090573
  PAW double counting   =       486.60729119     -487.40612709
  entropy T*S    EENTRO =        -0.00000000
  eigenvalues    EBANDS =       -89.82942855
  atomic energy  EATOM  =       197.04175453
  Solvation  Ediel_sol  =         0.00000000
  ---------------------------------------------------
  free energy    TOTEN  =       -24.00583525 eV

  energy without entropy =      -24.00583525  energy(sigma->0) =      -24.00583525


--------------------------------------------------------------------------------------------------------




--------------------------------------- Iteration      2(   2)  ---------------------------------------


    POTLOK:  cpu time    0.1122: real time    0.1123
    SETDIJ:  cpu time    0.0015: real time    0.0015
    EDDIAG:  cpu time    0.0290: real time    0.0290
  RMM-DIIS:  cpu time    0.1291: real time    0.1291
    ORTHCH:  cpu time    0.0013: real time    0.0013
       DOS:  cpu time    0.0002: real time    0.0002
    CHARGE:  cpu time    0.0150: real time    0.0150
    MIXING:  cpu time    0.0039: real time    0.0039
    --------------------------------------------
      LOOP:  cpu time    0.2923: real time    0.2923

 eigenvalue-minimisations  :    64
 total energy-change (2. order) : 0.3730479E-04  (-0.1442961E-04)
 number of electron       8.0000001 magnetization 
 augmentation part        0.1886909 magnetization 

 Broyden mixing:
  rms(total) = 0.18697E-02    rms(broyden)= 0.18693E-02
  rms(prec ) = 0.22384E-02
  weight for this iteration     100.00

 eigenvalues of (default mixing * dielectric matrix)
  average eigenvalue GAMMA=   1.6301
  1.6301

 Free energy of the ion-electron system (eV)
  ---------------------------------------------------
  alpha Z        PSCENC =         0.25196812
  Ewald energy   TEWEN  =       129.95238865
  -Hartree energ DENC   =      -285.44424771
  -exchange      EXHF   =         0.00000000
  -V(xc)+E(xc)   XCENC  =        24.87767495
  PAW double counting   =       485.69166714     -486.48975981
  entropy T*S    EENTRO =        -0.00000000
  eigenvalues    EBANDS =       -89.88724380
  atomic energy  EATOM  =       197.04175453
  Solvation  Ediel_sol  =         0.00000000
  ---------------------------------------------------
  free energy    TOTEN  =       -24.00579794 eV

  energy without entropy =      -24.00579794  energy(sigma->0) =      -24.00579794


--------------------------------------------------------------------------------------------------------




--------------------------------------- Iteration      2(   3)  ---------------------------------------


    POTLOK:  cpu time    0.1069: real time    0.1069
    SETDIJ:  cpu time    0.0015: real time    0.0015
    EDDIAG:  cpu time    0.0294: real time    0.0294
  RMM-DIIS:  cpu time    0.1278: real time    0.1278
    ORTHCH:  cpu time    0.0014: real time    0.0014
       DOS:  cpu time    0.0002: real time    0.0002
    CHARGE:  cpu time    0.0149: real time    0.0149
    MIXING:  cpu time    0.0038: real time    0.0038
    --------------------------------------------
      LOOP:  cpu time    0.2859: real time    0.2859

 eigenvalue-minimisations  :    64
 total energy-change (2. order) : 0.2201742E-05  (-0.5053905E-05)
 number of electron       8.0000001 magnetization 
 augmentation part        0.1887451 magnetization 

 Broyden mixing:
  rms(total) = 0.70029E-03    rms(broyden)= 0.69985E-03
  rms(prec ) = 0.81754E-03
  weight for this iteration     100.00

 eigenvalues of (default mixing * dielectric matrix)
  average eigenvalue GAMMA=   1.5359
  1.4258  1.6461

 Free energy of the ion-electron system (eV)
  ---------------------------------------------------
  alpha Z        PSCENC =         0.25196812
  Ewald energy   TEWEN  =       129.95238865
  -Hartree energ DENC   =      -285.41424231
  -exchange      EXHF   =         0.00000000
  -V(xc)+E(xc)   XCENC  =        24.87595702
  PAW double counting   =       485.08357395     -485.88127844
  entropy T*S    EENTRO =        -0.00000000
  eigenvalues    EBANDS =       -89.91591726
  atomic energy  EATOM  =       197.04175453
  Solvation  Ediel_sol  =         0.00000000
  ---------------------------------------------------
  free energy    TOTEN  =       -24.00579574 eV

  energy without entropy =      -24.00579574  energy(sigma->0) =      -24.00579574


--------------------------------------------------------------------------------------------------------




--------------------------------------- Iteration      2(   4)  ---------------------------------------


    POTLOK:  cpu time    0.1101: real time    0.1101
    SETDIJ:  cpu time    0.0015: real time    0.0015
    EDDIAG:  cpu time    0.0302: real time    0.0302
  RMM-DIIS:  cpu time    0.1032: real time    0.1032
    ORTHCH:  cpu time    0.0016: real time    0.0016
       DOS:  cpu time    0.0002: real time    0.0002
    --------------------------------------------
      LOOP:  cpu time    0.2467: real time    0.2468

 eigenvalue-minimisations  :    48
 total energy-change (2. order) :-0.1875949E-06  (-0.1599528E-06)
 number of electron       8.0000001 magnetization 
 augmentation part        0.1887451 magnetization 

 Free energy of the ion-electron system (eV)
  ---------------------------------------------------
  alpha Z        PSCENC =         0.25196812
  Ewald energy   TEWEN  =       129.95238865
  -Hartree energ DENC   =      -285.42230546
  -exchange      EXHF   =         0.00000000
  -V(xc)+E(xc)   XCENC  =        24.87622229
  PAW double counting   =       484.92884290     -485.72665402
  entropy T*S    EENTRO =        -0.00000000
  eigenvalues    EBANDS =       -89.90801294
  atomic energy  EATOM  =       197.04175453
  Solvation  Ediel_sol  =         0.00000000
  ---------------------------------------------------
  free energy    TOTEN  =       -24.00579593 eV

  energy without entropy =      -24.00579593  energy(sigma->0) =      -24.00579593


--------------------------------------------------------------------------------------------------------




 average (electrostatic) potential at core
  the test charge radii are     0.5201  0.6991
  (the norm of the test charge is              1.0000)
       1 -41.5659       2 -41.4736       3 -41.7072       4 -41.5269       5 -57.8825
 
 
 
 E-fermi :  -8.3241     XC(G=0):  -0.6915     alpha+bet : -0.2191


 k-point     1 :       0.2500    0.2500    0.2500
  band No.  band energies     occupation 
      1     -16.9728      2.00000
      2      -9.4400      2.00000
      3      -9.2942      2.00000
      4      -9.2468      2.00000
      5      -0.2781      0.00000
      6       0.6066      0.00000
      7       0.6910      0.00000
      8       0.7280      0.00000

 k-point     2 :      -0.2500    0.2500    0.2500
  band No.  band energies     occupation 
      1     -16.9728      2.00000
      2      -9.4401      2.00000
      3      -9.2942      2.00000
      4      -9.2469      2.00000
      5      -0.2866      0.00000
      6       0.6188      0.00000
      7       0.7124      0.00000
      8       0.7479      0.00000

 k-point     3 :       0.2500   -0.2500    0.2500
  band No.  band energies     occupation 
      1     -16.9729      2.00000
      2      -9.4401      2.00000
      3      -9.2944      2.00000
      4      -9.2469      2.00000
      5      -0.2866      0.00000
      6       0.6152      0.00000
      7       0.7056      0.00000
      8       0.7590      0.00000

 k-point     4 :      -0.2500   -0.2500    0.2500
  band No.  band energies     occupation 
      1     -16.9728      2.00000
      2      -9.4400      2.00000
      3      -9.2942      2.00000
      4      -9.2469      2.00000
      5      -0.2872      0.00000
      6       0.6233      0.00000
      7       0.7136      0.00000
      8       0.7508      0.00000


--------------------------------------------------------------------------------------------------------


 soft charge-density along one line, spin component           1
         0         1         2         3         4         5         6         7         8         9
 total charge-density along one line
 
 pseudopotential strength for first ion, spin component:           1
 -2.341  -4.035  -0.001  -0.001   0.001
 -4.035  -6.867  -0.003  -0.004   0.002
 -0.001  -0.003  -0.337   0.002  -0.001
 -0.001  -0.004   0.002  -0.335  -0.001
  0.001   0.002  -0.001  -0.001  -0.338
 total augmentation occupancy for first ion, spin component:           1
  3.589  -0.644   0.231   0.346  -0.156
 -0.644   0.130  -0.043  -0.064   0.028
  0.231  -0.043   0.022   0.019  -0.008
  0.346  -0.064   0.019   0.037  -0.012
 -0.156   0.028  -0.008  -0.012   0.015


------------------------ aborting loop because EDIFF is reached ----------------------------------------


    CHARGE:  cpu time    0.0147: real time    0.0147
    FORLOC:  cpu time    0.0102: real time    0.0102
    FORNL :  cpu time    0.0164: real time    0.0164
    STRESS:  cpu time    0.1316: real time    0.1316
    FORCOR:  cpu time    0.1131: real time    0.1131
    FORHAR:  cpu time    0.0372: real time    0.0372
    MIXING:  cpu time    0.0049: real time    0.0049
    OFIELD:  cpu time    0.0000: real time    0.0000

  FORCE on cell =-STRESS in cart. coord.  units (eV):
  Direction    XX          YY          ZZ          XY          YZ          ZX
  --------------------------------------------------------------------------------------
  Alpha Z     0.25197     0.25197     0.25197
  Ewald      42.29320    44.53830    43.12084    -0.09992    -1.54669    -2.20036
  Hartree    94.07879    96.62422    94.72124    -0.48637    -0.67495    -0.80082
  E(xc)     -27.34971   -27.36696   -27.35163    -0.00303    -0.00741    -0.00906
  Local    -195.07091  -199.67404  -196.44440     0.80781     2.02546     2.62914
  n-local   -16.16245   -16.26828   -16.18031    -0.04222    -0.01383     0.00665
  augment     0.11141     0.10721     0.11022    -0.00281     0.00121     0.00288
  Kinetic   101.67128   102.61174   101.77698     0.17932     0.38955     0.43126
  Fock        0.00000     0.00000     0.00000     0.00000     0.00000     0.00000
  -------------------------------------------------------------------------------------
  Total      -0.17642     0.82415     0.00490     0.35279     0.17335     0.05967
  in kB      -0.29399     1.37341     0.00817     0.58790     0.28888     0.09944
  external pressure =        0.36 kB  Pullay stress =        0.00 kB

  kinetic pressure (ideal gas correction) =      0.00 kB
  total pressure  =      0.37 kB
  Total+kin.    -0.293       1.379       0.009       0.590       0.290       0.100

 VOLUME and BASIS-vectors are now :
 -----------------------------------------------------------------------------
  energy-cutoff  :      400.00
[...]
  PAW double counting   =       449.65492341     -450.43217836
  entropy T*S    EENTRO =        -0.00000000
  eigenvalues    EBANDS =       -88.94948493
  atomic energy  EATOM  =       197.04175453
  Solvation  Ediel_sol  =         0.00000000
  ---------------------------------------------------
  free energy    TOTEN  =       -24.00873851 eV

  energy without entropy =      -24.00873851  energy(sigma->0) =      -24.00873851


--------------------------------------------------------------------------------------------------------




--------------------------------------- Iteration     10(   3)  ---------------------------------------


    POTLOK:  cpu time    0.1128: real time    0.1128
    SETDIJ:  cpu time    0.0014: real time    0.0014
    EDDIAG:  cpu time    0.0288: real time    0.0289
  RMM-DIIS:  cpu time    0.1014: real time    0.1014
    ORTHCH:  cpu time    0.0013: real time    0.0013
       DOS:  cpu time    0.0002: real time    0.0002
    CHARGE:  cpu time    0.0150: real time    0.0150
    MIXING:  cpu time    0.0040: real time    0.0040
    --------------------------------------------
      LOOP:  cpu time    0.2649: real time    0.2650

 eigenvalue-minimisations  :    47
 total energy-change (2. order) :-0.1507542E-05  (-0.1543554E-07)
 number of electron       8.0000001 magnetization 
 augmentation part        0.1817694 magnetization 

 Broyden mixing:
  rms(total) = 0.56579E-04    rms(broyden)= 0.56557E-04
  rms(prec ) = 0.81282E-04
  weight for this iteration     100.00

 eigenvalues of (default mixing * dielectric matrix)
  average eigenvalue GAMMA=   1.5028
  1.1629  1.8427

 Free energy of the ion-electron system (eV)
  ---------------------------------------------------
  alpha Z        PSCENC =         0.25196812
  Ewald energy   TEWEN  =       124.09441832
  -Hartree energ DENC   =      -280.27373534
  -exchange      EXHF   =         0.00000000
  -V(xc)+E(xc)   XCENC  =        24.60423909
  PAW double counting   =       449.64076000     -450.41800811
  entropy T*S    EENTRO =        -0.00000000
  eigenvalues    EBANDS =       -88.95013663
  atomic energy  EATOM  =       197.04175453
  Solvation  Ediel_sol  =         0.00000000
  ---------------------------------------------------
  free energy    TOTEN  =       -24.00874001 eV

  energy without entropy =      -24.00874001  energy(sigma->0) =      -24.00874001


--------------------------------------------------------------------------------------------------------




--------------------------------------- Iteration     10(   4)  ---------------------------------------


    POTLOK:  cpu time    0.1135: real time    0.1135
    SETDIJ:  cpu time    0.0015: real time    0.0015
    EDDIAG:  cpu time    0.0294: real time    0.0294
  RMM-DIIS:  cpu time    0.1057: real time    0.1057
    ORTHCH:  cpu time    0.0015: real time    0.0015
       DOS:  cpu time    0.0002: real time    0.0002
    CHARGE:  cpu time    0.0150: real time    0.0150
    MIXING:  cpu time    0.0041: real time    0.0041
    --------------------------------------------
      LOOP:  cpu time    0.2708: real time    0.2708

 eigenvalue-minimisations  :    48
 total energy-change (2. order) :-0.2624886E-05  (-0.1089469E-07)
 number of electron       8.0000001 magnetization 
 augmentation part        0.1817711 magnetization 

 Broyden mixing:
  rms(total) = 0.17460E-04    rms(broyden)= 0.17437E-04
  rms(prec ) = 0.40915E-04
  weight for this iteration     100.00

 eigenvalues of (default mixing * dielectric matrix)
  average eigenvalue GAMMA=   1.4156
  0.9790  1.6340  1.6340

 Free energy of the ion-electron system (eV)
  ---------------------------------------------------
  alpha Z        PSCENC =         0.25196812
  Ewald energy   TEWEN  =       124.09441832
  -Hartree energ DENC   =      -280.27317101
  -exchange      EXHF   =         0.00000000
  -V(xc)+E(xc)   XCENC  =        24.60419506
  PAW double counting   =       449.62882017     -450.40606364
  entropy T*S    EENTRO =        -0.00000000
  eigenvalues    EBANDS =       -88.95066419
  atomic energy  EATOM  =       197.04175453
  Solvation  Ediel_sol  =         0.00000000
  ---------------------------------------------------
  free energy    TOTEN  =       -24.00874264 eV

  energy without entropy =      -24.00874264  energy(sigma->0) =      -24.00874264


--------------------------------------------------------------------------------------------------------




--------------------------------------- Iteration     10(   5)  ---------------------------------------


    POTLOK:  cpu time    0.1141: real time    0.1141
    SETDIJ:  cpu time    0.0015: real time    0.0015
    EDDIAG:  cpu time    0.0297: real time    0.0297
  RMM-DIIS:  cpu time    0.0882: real time    0.0882
    ORTHCH:  cpu time    0.0013: real time    0.0013
       DOS:  cpu time    0.0002: real time    0.0002
    CHARGE:  cpu time    0.0148: real time    0.0148
    MIXING:  cpu time    0.0040: real time    0.0040
    --------------------------------------------
      LOOP:  cpu time    0.2538: real time    0.2538

 eigenvalue-minimisations  :    32
 total energy-change (2. order) :-0.1423074E-05  ( 0.0000000E+00)
 number of electron       8.0000001 magnetization 
 augmentation part        0.1817711 magnetization 

 Broyden mixing:
  rms(total) = 0.78573E-05    rms(broyden)= 0.78556E-05
  rms(prec ) = 0.28573E-04
  weight for this iteration     100.00

 eigenvalues of (default mixing * dielectric matrix)
  average eigenvalue GAMMA=   1.6679
  0.9798  1.1225  2.6548  1.9146

 Free energy of the ion-electron system (eV)
  ---------------------------------------------------
  alpha Z        PSCENC =         0.25196812
  Ewald energy   TEWEN  =       124.09441832
  -Hartree energ DENC   =      -280.27365041
  -exchange      EXHF   =         0.00000000
  -V(xc)+E(xc)   XCENC  =        24.60421097
  PAW double counting   =       449.62943411     -450.40668281
  entropy T*S    EENTRO =        -0.00000000
  eigenvalues    EBANDS =       -88.95019689
  atomic energy  EATOM  =       197.04175453
  Solvation  Ediel_sol  =         0.00000000
  ---------------------------------------------------
  free energy    TOTEN  =       -24.00874406 eV

  energy without entropy =      -24.00874406  energy(sigma->0) =      -24.00874406


--------------------------------------------------------------------------------------------------------




--------------------------------------- Iteration     10(   6)  ---------------------------------------


    POTLOK:  cpu time    0.1152: real time    0.1153
    SETDIJ:  cpu time    0.0016: real time    0.0016
    EDDIAG:  cpu time    0.0289: real time    0.0289
  RMM-DIIS:  cpu time    0.0974: real time    0.0974
    ORTHCH:  cpu time    0.0015: real time    0.0015
       DOS:  cpu time    0.0002: real time    0.0002
    CHARGE:  cpu time    0.0146: real time    0.0146
    MIXING:  cpu time    0.0041: real time    0.0041
    --------------------------------------------
      LOOP:  cpu time    0.2634: real time    0.2634

 eigenvalue-minimisations  :    43
 total energy-change (2. order) :-0.2097931E-05  (-0.5553532E-08)
 number of electron       8.0000001 magnetization 
 augmentation part        0.1817711 magnetization 

 Broyden mixing:
  rms(total) = 0.10813E-04    rms(broyden)= 0.10812E-04
  rms(prec ) = 0.19171E-04
  weight for this iteration     100.00

 eigenvalues of (default mixing * dielectric matrix)
  average eigenvalue GAMMA=   1.3951
  2.6313  1.8580  1.1036  0.9544  0.4280

 Free energy of the ion-electron system (eV)
  ---------------------------------------------------
  alpha Z        PSCENC =         0.25196812
  Ewald energy   TEWEN  =       124.09441832
  -Hartree energ DENC   =      -280.27413773
  -exchange      EXHF   =         0.00000000
  -V(xc)+E(xc)   XCENC  =        24.60422254
  PAW double counting   =       449.62821124     -450.40546396
  entropy T*S    EENTRO =        -0.00000000
  eigenvalues    EBANDS =       -88.94971922
  atomic energy  EATOM  =       197.04175453
  Solvation  Ediel_sol  =         0.00000000
  ---------------------------------------------------
  free energy    TOTEN  =       -24.00874616 eV

  energy without entropy =      -24.00874616  energy(sigma->0) =      -24.00874616


--------------------------------------------------------------------------------------------------------




--------------------------------------- Iteration     10(   7)  ---------------------------------------


    POTLOK:  cpu time    0.1157: real time    0.1157
    SETDIJ:  cpu time    0.0016: real time    0.0016
    EDDIAG:  cpu time    0.0291: real time    0.0291
  RMM-DIIS:  cpu time    0.0870: real time    0.0870
    ORTHCH:  cpu time    0.0013: real time    0.0013
       DOS:  cpu time    0.0001: real time    0.0001
    --------------------------------------------
      LOOP:  cpu time    0.2348: real time    0.2348

 eigenvalue-minimisations  :    36
 total energy-change (2. order) :-0.6352246E-06  (-0.3165770E-08)
 number of electron       8.0000001 magnetization 
 augmentation part        0.1817711 magnetization 

 Free energy of the ion-electron system (eV)
  ---------------------------------------------------
  alpha Z        PSCENC =         0.25196812
  Ewald energy   TEWEN  =       124.09441832
  -Hartree energ DENC   =      -280.27370967
  -exchange      EXHF   =         0.00000000
  -V(xc)+E(xc)   XCENC  =        24.60419812
  PAW double counting   =       449.62782092     -450.40506777
  entropy T*S    EENTRO =        -0.00000000
  eigenvalues    EBANDS =       -88.95012936
  atomic energy  EATOM  =       197.04175453
  Solvation  Ediel_sol  =         0.00000000
  ---------------------------------------------------
  free energy    TOTEN  =       -24.00874680 eV

  energy without entropy =      -24.00874680  energy(sigma->0) =      -24.00874680


--------------------------------------------------------------------------------------------------------




 average (electrostatic) potential at core
  the test charge radii are     0.5201  0.6991
  (the norm of the test charge is              1.0000)
       1 -41.4098       2 -41.5189       3 -41.2514       4 -41.4648       5 -58.0356
 
 
 
 E-fermi :  -8.1703     XC(G=0):  -0.7383     alpha+bet : -0.2191


 k-point     1 :       0.2500    0.2500    0.2500
  band No.  band energies     occupation 
      1     -16.7812      2.00000
      2      -9.2999      2.00000
      3      -9.2670      2.00000
      4      -9.1266      2.00000
      5      -0.3237      0.00000
      6       0.5524      0.00000
      7       0.6629      0.00000
      8       0.6941      0.00000

 k-point     2 :      -0.2500    0.2500    0.2500
  band No.  band energies     occupation 
      1     -16.7813      2.00000
      2      -9.3000      2.00000
      3      -9.2671      2.00000
      4      -9.1267      2.00000
      5      -0.3328      0.00000
      6       0.5704      0.00000
      7       0.6772      0.00000
      8       0.7182      0.00000

 k-point     3 :       0.2500   -0.2500    0.2500
  band No.  band energies     occupation 
      1     -16.7813      2.00000
      2      -9.3001      2.00000
      3      -9.2671      2.00000
      4      -9.1267      2.00000
      5      -0.3331      0.00000
      6       0.5681      0.00000
      7       0.6733      0.00000
      8       0.7273      0.00000

 k-point     4 :      -0.2500   -0.2500    0.2500
  band No.  band energies     occupation 
      1     -16.7813      2.00000
      2      -9.3000      2.00000
      3      -9.2671      2.00000
      4      -9.1267      2.00000
      5      -0.3327      0.00000
      6       0.5717      0.00000
      7       0.6833      0.00000
      8       0.7158      0.00000


--------------------------------------------------------------------------------------------------------


 soft charge-density along one line, spin component           1
         0         1         2         3         4         5         6         7         8         9
 total charge-density along one line
 
 pseudopotential strength for first ion, spin component:           1
 -2.340  -4.032  -0.001  -0.001   0.001
 -4.032  -6.862  -0.003  -0.004   0.002
 -0.001  -0.003  -0.338   0.002  -0.001
 -0.001  -0.004   0.002  -0.337  -0.001
  0.001   0.002  -0.001  -0.001  -0.339
 total augmentation occupancy for first ion, spin component:           1
  3.499  -0.632   0.221   0.323  -0.142
 -0.632   0.128  -0.041  -0.060   0.026
  0.221  -0.041   0.020   0.017  -0.007
  0.323  -0.060   0.017   0.033  -0.011
 -0.142   0.026  -0.007  -0.011   0.013


------------------------ aborting loop because EDIFF is reached ----------------------------------------


    CHARGE:  cpu time    0.0147: real time    0.0147
    FORLOC:  cpu time    0.0101: real time    0.0101
    FORNL :  cpu time    0.0164: real time    0.0164
    STRESS:  cpu time    0.1321: real time    0.1321
    FORCOR:  cpu time    0.1119: real time    0.1119
    FORHAR:  cpu time    0.0361: real time    0.0361
    MIXING:  cpu time    0.0046: real time    0.0046
    OFIELD:  cpu time    0.0000: real time    0.0000

  FORCE on cell =-STRESS in cart. coord.  units (eV):
  Direction    XX          YY          ZZ          XY          YZ          ZX
  --------------------------------------------------------------------------------------
  Alpha Z     0.25197     0.25197     0.25197
  Ewald      40.66710    42.25663    41.17064    -1.06771    -0.78398    -0.55549
  Hartree    91.94233    95.57736    92.75460    -0.26686    -0.36308    -0.46209
  E(xc)     -27.06279   -27.06170   -27.06188     0.00121    -0.00138    -0.00238
  Local    -191.22154  -197.26738  -192.68374     1.02261     1.01746     1.02874
  n-local   -15.61926   -15.53444   -15.60104     0.03522     0.00704    -0.00884
  augment     0.11914     0.12654     0.12067     0.00289     0.00109    -0.00030
  Kinetic   100.28812   100.22871   100.23972    -0.06040     0.06797     0.11354
  Fock        0.00000     0.00000     0.00000     0.00000     0.00000     0.00000
  -------------------------------------------------------------------------------------
  Total      -0.63492    -1.42231    -0.80907    -0.33303    -0.05488     0.11317
  in kB      -1.05807    -2.37020    -1.34828    -0.55498    -0.09145     0.18860
  external pressure =       -1.59 kB  Pullay stress =        0.00 kB

  kinetic pressure (ideal gas correction) =      0.01 kB
  total pressure  =     -1.58 kB
  Total+kin.    -1.055      -2.345      -1.343      -0.548      -0.082       0.192

 VOLUME and BASIS-vectors are now :
 -----------------------------------------------------------------------------
  energy-cutoff  :      400.00
  volume of cell :      961.43
      direct lattice vectors                 reciprocal lattice vectors
     9.984611144  0.000000000  0.000000000     0.100154126  0.002058017  0.002285529
    -0.199485023  9.708009344  0.000000000     0.000000000  0.103007729  0.002297582
    -0.221801604 -0.221237922  9.918780390     0.000000000  0.000000000  0.100818847

  length of vectors
     9.984611144  9.710058687  9.923726447     0.100201337  0.103033350  0.100818847


 FORCES acting on ions
    electron-ion (+dipol)            ewald-force                    non-local-force                 convergence-correction
 -----------------------------------------------------------------------------------------------
   -.176E+02 0.277E+02 0.404E+02   0.193E+02 -.303E+02 -.442E+02   -.181E+01 0.282E+01 0.413E+01   0.200E-04 -.225E-04 -.296E-04
   0.522E+02 -.579E+01 0.367E+01   -.577E+02 0.641E+01 -.406E+01   0.548E+01 -.617E+00 0.383E+00   -.393E-04 0.584E-05 -.694E-06
   -.223E+02 -.460E+02 0.765E+00   0.240E+02 0.496E+02 -.805E+00   -.219E+01 -.452E+01 0.842E-01   0.319E-04 0.518E-04 0.459E-05
   -.120E+02 0.243E+02 -.448E+02   0.132E+02 -.268E+02 0.492E+02   -.124E+01 0.252E+01 -.464E+01   0.153E-04 -.150E-04 0.325E-04
   -.953E+00 -.833E+00 0.106E+00   0.124E+01 0.109E+01 -.172E+00   0.356E+00 0.351E+00 -.104E+00   0.144E-04 -.486E-04 0.252E-04
 -----------------------------------------------------------------------------------------------
   -.592E+00 -.557E+00 0.144E+00   -.355E-14 0.000E+00 -.711E-14   0.592E+00 0.557E+00 -.144E+00   0.422E-04 -.285E-04 0.321E-04
 
 
 POSITION                                       TOTAL-FORCE (eV/Angst)
 -----------------------------------------------------------------------------------
      5.20721      3.84330      3.55775        -0.157437      0.184403      0.316620
      3.74436      4.55508      4.34209        -0.020312     -0.003012     -0.016550
      5.32295      5.45188      4.40106        -0.435727     -0.880945      0.043800
      5.08298      3.92092      5.36174        -0.031638      0.093746     -0.173897
      4.83072      4.43365      4.41852         0.644889      0.606217     -0.169927
 -----------------------------------------------------------------------------------
    total drift:                               -0.000226      0.000409      0.000045


--------------------------------------------------------------------------------------------------------



  FREE ENERGIE OF THE ION-ELECTRON SYSTEM (eV)
  ---------------------------------------------------
  free  energy   TOTEN  =       -24.00874680 eV

  energy  without entropy=      -24.00874680  energy(sigma->0) =      -24.00874680
 
 d Force =-0.5287154E-02[-0.580E-02,-0.477E-02]  d Energy =-0.5289608E-02 0.245E-05
 d Force = 0.4882303E+00[ 0.487E+00, 0.489E+00]  d Ewald  = 0.4882289E+00 0.140E-05


--------------------------------------------------------------------------------------------------------


    POTLOK:  cpu time    0.1179: real time    0.1179


--------------------------------------------------------------------------------------------------------


           RANDOM_SEED =         172270062               30                0
   IONSTEP:  cpu time    0.0001: real time    0.0001

  ENERGY OF THE ELECTRON-ION-THERMOSTAT SYSTEM (eV)
  ---------------------------------------------------
% ion-electron   TOTEN  =       -24.008747  see above
  kinetic energy EKIN   =         0.007668
  kin. lattice  EKIN_LAT=         0.000000  (temperature   14.83 K)
  nose potential ES     =         0.000000
  nose kinetic   EPS    =         0.000000
  ---------------------------------------------------
  total energy   ETOTAL =       -24.001079 eV

  maximum distance moved by ions :      0.36E-03


 mean value of Nose-termostat <S>:     1.000 mean value of <T> :    28.521
 mean temperature <T/S>/<1/S>  :    28.521

    WAVPRE:  cpu time    0.0422: real time    0.0422
    FEWALD:  cpu time    0.0006: real time    0.0006
    ORTHCH:  cpu time    0.0074: real time    0.0074
 Prediction of Wavefunctions ALPHA= 2.078 BETA=-1.104
    POTLOK:  cpu time    0.1075: real time    0.1075
    EDDIAG:  cpu time    0.0301: real time    0.0301
     LOOP+:  cpu time    2.4976: real time    2.4978
    4ORBIT:  cpu time    0.0000: real time    0.0010

 total amount of memory used by VASP MPI-rank0    54499. kBytes
=======================================================================

   base      :      30000. kBytes
   nonl-proj :       2595. kBytes
   fftplans  :       7842. kBytes
   grid      :      12367. kBytes
   one-center:          6. kBytes
   wavefun   :       1689. kBytes
 
  
  
 General timing and accounting informations for this job:
 ========================================================
  
                  Total CPU time used (sec):       22.815
                            User time (sec):       21.499
                          System time (sec):        1.316
                         Elapsed time (sec):       23.353
  
                   Maximum memory used (kb):      174808.
                   Average memory used (kb):           0.
  
                          Minor page faults:       253526
                          Major page faults:          144
                 Voluntary context switches:          513
