 vasp.5.4.4.18Apr17-6-g9f103f2a35 (build Jul 09 2021 13:05:15) complex          
  
 executed on             LinuxIFC date 2021.11.04  19:02:36
 running on   16 total cores
 distrk:  each k-point on   16 cores,    1 groups
 distr:  one band on NCORES_PER_BAND=   4 cores,    4 groups


--------------------------------------------------------------------------------------------------------


 INCAR:
 POTCAR:    PAW_PBE H 15Jun2001                   
 POTCAR:    PAW_PBE C 08Apr2002                   
 POTCAR:    PAW_PBE H 15Jun2001                   
   VRHFIN =H: ultrasoft test                                                    
   LEXCH  = PE                                                                  
   EATOM  =    12.4884 eV,    0.9179 Ry                                         
                                                                                
   TITEL  = PAW_PBE H 15Jun2001                                                 
   LULTRA =        F    use ultrasoft PP ?                                      
   IUNSCR =        0    unscreen: 0-lin 1-nonlin 2-no                           
   RPACOR =    0.000    partial core radius                                     
   POMASS =    1.000; ZVAL   =    1.000    mass and valenz                      
   RCORE  =    1.100    outmost cutoff radius                                   
   RWIGS  =    0.700; RWIGS  =    0.370    wigner-seitz radius (au A)           
   ENMAX  =  250.000; ENMIN  =  200.000 eV                                      
   RCLOC  =    0.701    cutoff for local pot                                    
   LCOR   =        T    correct aug charges                                     
   LPAW   =        T    paw PP                                                  
   EAUG   =  400.000                                                            
   RMAX   =    1.123    core radius for proj-oper                               
   RAUG   =    1.200    factor for augmentation sphere                          
   RDEP   =    1.112    radius for radial grids                                 
   RDEPT  =    0.926    core radius for aug-charge                              
                                                                                
   Atomic configuration                                                         
    2 entries                                                                   
     n  l   j            E        occ.                                          
     1  0  0.50        -6.4927   1.0000                                         
     2  1  0.50        -3.4015   0.0000                                         
   Description                                                                  
     l       E           TYP  RCUT    TYP  RCUT                                 
     0     -6.4927494     23  1.100                                             
     0      6.8029130     23  1.100                                             
     1     -4.0817478     23  1.100                                             
  local pseudopotential read in
  atomic valenz-charges read in
  non local Contribution for L=           0  read in
    real space projection operators read in
  non local Contribution for L=           0  read in
    real space projection operators read in
  non local Contribution for L=           1  read in
    real space projection operators read in
    PAW grid and wavefunctions read in
 
   number of l-projection  operators is LMAX  =           3
   number of lm-projection operators is LMMAX =           5
 
 POTCAR:    PAW_PBE C 08Apr2002                   
   VRHFIN =C: s2p2                                                              
   LEXCH  = PE                                                                  
   EATOM  =   147.1560 eV,   10.8157 Ry                                         
                                                                                
   TITEL  = PAW_PBE C 08Apr2002                                                 
   LULTRA =        F    use ultrasoft PP ?                                      
   IUNSCR =        1    unscreen: 0-lin 1-nonlin 2-no                           
   RPACOR =    1.200    partial core radius                                     
   POMASS =   12.011; ZVAL   =    4.000    mass and valenz                      
   RCORE  =    1.500    outmost cutoff radius                                   
   RWIGS  =    1.630; RWIGS  =    0.863    wigner-seitz radius (au A)           
   ENMAX  =  400.000; ENMIN  =  300.000 eV                                      
   ICORE  =        2    local potential                                         
   LCOR   =        T    correct aug charges                                     
   LPAW   =        T    paw PP                                                  
   EAUG   =  644.873                                                            
   DEXC   =    0.000                                                            
   RMAX   =    1.529    core radius for proj-oper                               
   RAUG   =    1.300    factor for augmentation sphere                          
   RDEP   =    1.501    radius for radial grids                                 
   RDEPT  =    1.300    core radius for aug-charge                              
                                                                                
   Atomic configuration                                                         
    4 entries                                                                   
     n  l   j            E        occ.                                          
     1  0  0.50      -273.3789   2.0000                                         
     2  0  0.50       -13.7508   2.0000                                         
     2  1  0.50        -5.2854   2.0000                                         
     3  2  1.50        -5.4423   0.0000                                         
   Description                                                                  
     l       E           TYP  RCUT    TYP  RCUT                                 
     0    -13.7508458     23  1.200                                             
     0     -8.2022199     23  1.200                                             
     1     -5.2854383     23  1.500                                             
     1     34.0145650     23  1.500                                             
     2     -5.4423304      7  1.500                                             
  local pseudopotential read in
  partial core-charges read in
  partial kinetic energy density read in
  atomic valenz-charges read in
  non local Contribution for L=           0  read in
    real space projection operators read in
  non local Contribution for L=           0  read in
    real space projection operators read in
  non local Contribution for L=           1  read in
    real space projection operators read in
  non local Contribution for L=           1  read in
    real space projection operators read in
    PAW grid and wavefunctions read in
 
   number of l-projection  operators is LMAX  =           4
   number of lm-projection operators is LMMAX =           8
 
  PAW_PBE H 15Jun2001                   :
 energy of atom  1       EATOM=  -12.4884
 kinetic energy error for atom=    0.0098 (will be added to EATOM!!)
  PAW_PBE C 08Apr2002                   :
 energy of atom  2       EATOM= -147.1560
 kinetic energy error for atom=    0.0288 (will be added to EATOM!!)
 
 
 POSCAR:  H  C                                   
  positions in cartesian coordinates
  No initial velocities read in
 exchange correlation table for  LEXCH =        8
   RHO(1)=    0.500       N(1)  =     2000
   RHO(2)=  100.500       N(2)  =     4000
 


--------------------------------------------------------------------------------------------------------


 ion  position               nearest neighbor table
   1  0.539  0.407  0.361-   5 1.10
   2  0.395  0.480  0.438-   5 1.06
   3  0.552  0.565  0.443-   5 1.08
   4  0.528  0.416  0.539-   5 1.11
   5  0.503  0.467  0.445-   2 1.06   3 1.08   1 1.10   4 1.11
 

IMPORTANT INFORMATION: All symmetrisations will be switched off!
NOSYMM: (Re-)initialisation of all symmetry stuff for point group C_1.

 
 

Automatic generation of k-mesh.
 generate k-points for:    2    2    2
Space group operators:
 irot       det(A)        alpha          n_x          n_y          n_z        tau_x        tau_y        tau_z
    1     1.000000     0.000000     1.000000     0.000000     0.000000     0.000000     0.000000     0.000000
 
 Subroutine IBZKPT returns following result:
 ===========================================
 
 Found      4 irreducible k-points:
 
 Following reciprocal coordinates:
            Coordinates               Weight
  0.250000  0.250000  0.250000      2.000000
 -0.250000  0.250000  0.250000      2.000000
  0.250000 -0.250000  0.250000      2.000000
 -0.250000 -0.250000  0.250000      2.000000
 
 Following cartesian coordinates:
            Coordinates               Weight
  0.025723  0.025240  0.023897      2.000000
 -0.025723  0.025932  0.024577      2.000000
  0.025723 -0.025932  0.024352      2.000000
 -0.025723 -0.025240  0.025031      2.000000
 


--------------------------------------------------------------------------------------------------------




 Dimension of arrays:
   k-points           NKPTS =      4   k-points in BZ     NKDIM =      4   number of bands    NBANDS=      8
   number of dos      NEDOS =    301   number of ions     NIONS =      5
   non local maximal  LDIM  =      4   non local SUM 2l+1 LMDIM =      8
   total plane-waves  NPLWV = 286720
   max r-space proj   IRMAX =      1   max aug-charges    IRDMAX=   3686
   dimension x,y,z NGX =    64 NGY =   64 NGZ =   70
   dimension x,y,z NGXF=   128 NGYF=  128 NGZF=  140
   support grid    NGXF=   128 NGYF=  128 NGZF=  140
   ions per type =               4   1
   NGX,Y,Z   is equivalent  to a cutoff of  10.95, 10.89, 11.39 a.u.
   NGXF,Y,Z  is equivalent  to a cutoff of  21.89, 21.78, 22.77 a.u.

 SYSTEM =  unknown system                          
 POSCAR =   H  C                                   

 Startparameter for this run:
   NWRITE =      2    write-flag & timer
   PREC   = a         normal or accurate (medium, high low for compatibility)
   ISTART =      0    job   : 0-new  1-cont  2-samecut
   ICHARG =      2    charge: 1-file 2-atom 10-const
   ISPIN  =      1    spin polarized calculation?
   LNONCOLLINEAR =      F non collinear calculations
   LSORBIT =      F    spin-orbit coupling
   INIWAV =      1    electr: 0-lowe 1-rand  2-diag
   LASPH  =      F    aspherical Exc in radial PAW
   METAGGA=      F    non-selfconsistent MetaGGA calc.

 Electronic Relaxation 1
   ENCUT  =  400.0 eV  29.40 Ry    5.42 a.u.  15.85 15.94 16.67*2*pi/ulx,y,z
   ENINI  =  400.0     initial cutoff
   ENAUG  =  644.9 eV  augmentation charge cutoff
   NELM   =    120;   NELMIN=  4; NELMDL= -5     # of ELM steps 
   EDIFF  = 0.1E-05   stopping-criterion for ELM
   LREAL  =      F    real-space projection
   NLSPLINE    = F    spline interpolate recip. space projectors
   LCOMPAT=      F    compatible to vasp.4.4
   GGA_COMPAT  = T    GGA compatible to vasp.4.4-vasp.4.6
   LMAXPAW     = -100 max onsite density
   LMAXMIX     =    2 max onsite mixed and CHGCAR
   VOSKOWN=      0    Vosko Wilk Nusair interpolation
   ROPT   =    0.00000   0.00000
 Ionic relaxation
   EDIFFG = 0.1E-04   stopping-criterion for IOM
   NSW    =     10    number of steps for IOM
   NBLOCK =      1;   KBLOCK =     10    inner block; outer block 
   IBRION =      0    ionic relax: 0-MD 1-quasi-New 2-CG
   NFREE  =      0    steps in history (QN), initial steepest desc. (CG)
   ISIF   =      2    stress and relaxation
   IWAVPR =     12    prediction:  0-non 1-charg 2-wave 3-comb
   ISYM   =      0    0-nonsym 1-usesym 2-fastsym
   LCORR  =      T    Harris-Foulkes like correction to forces

   POTIM  = 0.5000    time-step for ionic-motion
   TEIN   =    0.0    initial temperature
   TEBEG  =    0.0;   TEEND  =   0.0 temperature during run
   SMASS  =  -3.00    Nose mass-parameter (am)
   estimated Nose-frequenzy (Omega)   =  0.10E-29 period in steps =****** mass=  -0.216E-26a.u.
   SCALEE = 1.0000    scale energy and forces
   NPACO  =    256;   APACO  = 16.0  distance and # of slots for P.C.
   PSTRESS=    0.0 pullay stress

  Mass of Ions in am
   POMASS =   1.00 12.01
  Ionic Valenz
   ZVAL   =   1.00  4.00
  Atomic Wigner-Seitz radii
   RWIGS  =  -1.00 -1.00
  virtual crystal weights 
   VCA    =   1.00  1.00
   NELECT =       8.0000    total number of electrons
   NUPDOWN=      -1.0000    fix difference up-down

 DOS related values:
   EMIN   =  10.00;   EMAX   =-10.00  energy-range for DOS
   EFERMI =   0.00
   ISMEAR =     0;   SIGMA  =   0.20  broadening in eV -4-tet -1-fermi 0-gaus

 Electronic relaxation 2 (details)
   IALGO  =     68    algorithm
   LDIAG  =      T    sub-space diagonalisation (order eigenvalues)
   LSUBROT=      F    optimize rotation matrix (better conditioning)
   TURBO    =      0    0=normal 1=particle mesh
   IRESTART =      0    0=no restart 2=restart with 2 vectors
   NREBOOT  =      0    no. of reboots
   NMIN     =      0    reboot dimension
   EREF     =   0.00    reference energy to select bands
   IMIX   =      4    mixing-type and parameters
     AMIX     =   0.40;   BMIX     =  1.00
     AMIX_MAG =   1.60;   BMIX_MAG =  1.00
     AMIN     =   0.10
     WC   =   100.;   INIMIX=   1;  MIXPRE=   1;  MAXMIX= -45

 Intra band minimization:
   WEIMIN = 0.0010     energy-eigenvalue tresh-hold
   EBREAK =  0.31E-07  absolut break condition
   DEPER  =   0.30     relativ break condition  

   TIME   =   0.40     timestep for ELM

  volume/ion in A,a.u.               =     194.09      1309.79
  Fermi-wavevector in a.u.,A,eV,Ry     =   0.330709  0.624950  1.488050  0.109369
  Thomas-Fermi vector in A             =   1.226244
 
 Write flags
   LWAVE        =      F    write WAVECAR
   LDOWNSAMPLE  =      F    k-point downsampling of WAVECAR
   LCHARG       =      F    write CHGCAR
   LVTOT        =      F    write LOCPOT, total local potential
   LVHAR        =      F    write LOCPOT, Hartree potential only
   LELF         =      F    write electronic localiz. function (ELF)
   LORBIT       =      0    0 simple, 1 ext, 2 COOP (PROOUT), +10 PAW based schemes


 Dipole corrections
   LMONO  =      F    monopole corrections only (constant potential shift)
   LDIPOL =      F    correct potential (dipole corrections)
   IDIPOL =      0    1-x, 2-y, 3-z, 4-all directions 
   EPSILON=  1.0000000 bulk dielectric constant

 Exchange correlation treatment:
   GGA     =    --    GGA type
   LEXCH   =     8    internal setting for exchange type
   VOSKOWN=      0    Vosko Wilk Nusair interpolation
   LHFCALC =     F    Hartree Fock is set to
   LHFONE  =     F    Hartree Fock one center treatment
   AEXX    =    0.0000 exact exchange contribution

 Linear response parameters
   LEPSILON=     F    determine dielectric tensor
   LRPA    =     F    only Hartree local field effects (RPA)
   LNABLA  =     F    use nabla operator in PAW spheres
   LVEL    =     F    velocity operator in full k-point grid
   LINTERFAST=   F  fast interpolation
   KINTER  =     0    interpolate to denser k-point grid
   CSHIFT  =0.1000    complex shift for real part using Kramers Kronig
   OMEGAMAX=  -1.0    maximum frequency
   DEG_THRESHOLD= 0.2000000E-02 threshold for treating states as degnerate
   RTIME   =   -0.100 relaxation time in fs
  (WPLASMAI=    0.000 imaginary part of plasma frequency in eV, 0.658/RTIME)
   DFIELD  = 0.0000000 0.0000000 0.0000000 field for delta impulse in time
 
 Orbital magnetization related:
   ORBITALMAG=     F  switch on orbital magnetization
   LCHIMAG   =     F  perturbation theory with respect to B field
   DQ        =  0.001000  dq finite difference perturbation B field
   LLRAUG    =     F  two centre corrections for induced B field



--------------------------------------------------------------------------------------------------------


 molecular dynamics for ions
   using a microcanonical ensemble
 charge density and potential will be updated during run
 non-spin polarized calculation
 RMM-DIIS sequential band-by-band and
  variant of blocked Davidson during initial phase
 perform sub-space diagonalisation
    before iterative eigenvector-optimisation
 modified Broyden-mixing scheme, WC =      100.0
 initial mixing is a Kerker type mixing with AMIX =  0.4000 and BMIX =      1.0000
 Hartree-type preconditioning will be used
 using additional bands            4
 reciprocal scheme for non local part
 use partial core corrections
 calculate Harris-corrections to forces 
   (improved forces if not selfconsistent)
 use gradient corrections 
 use of overlap-Matrix (Vanderbilt PP)
 Gauss-broadening in eV      SIGMA  =   0.20


--------------------------------------------------------------------------------------------------------


  energy-cutoff  :      400.00
  volume of cell :      970.46
      direct lattice vectors                 reciprocal lattice vectors
     9.718996754  0.000000000  0.000000000     0.102891278 -0.001384308 -0.001358244
     0.131461035  9.771086369  0.000000000     0.000000000  0.102342765 -0.000908295
     0.136119861  0.090694568 10.219072504     0.000000000  0.000000000  0.097856239

  length of vectors
     9.718996754  9.771970673 10.220381449     0.102909554  0.102346796  0.097856239


 
 k-points in units of 2pi/SCALE and weight: read from INCAR                         
   0.02572282  0.02523961  0.02389742       0.250
  -0.02572282  0.02593177  0.02457655       0.250
   0.02572282 -0.02593177  0.02435157       0.250
  -0.02572282 -0.02523961  0.02503069       0.250
 
 k-points in reciprocal lattice and weights: read from INCAR                         
   0.25000000  0.25000000  0.25000000       0.250
  -0.25000000  0.25000000  0.25000000       0.250
   0.25000000 -0.25000000  0.25000000       0.250
  -0.25000000 -0.25000000  0.25000000       0.250
 
 position of ions in fractional coordinates (direct lattice) 
   0.53855626  0.40721461  0.36052024
   0.39453334  0.47974889  0.43787636
   0.55222721  0.56544828  0.44265137
   0.52795516  0.41622832  0.53925442
   0.50282460  0.46731430  0.44507797
 
 position of ions in cartesian coordinates  (Angst):
   5.33683335  4.01162635  3.68418243
   3.95714019  4.72738085  4.47469024
   5.50168252  5.56519008  4.52348642
   5.25931556  4.11591031  5.51067999
   5.00896826  4.60653452  4.54828402
 


--------------------------------------------------------------------------------------------------------


 k-point  1 :   0.2500 0.2500 0.2500  plane waves:   17637
 k-point  2 :  -0.2500 0.2500 0.2500  plane waves:   17624
 k-point  3 :   0.2500-0.2500 0.2500  plane waves:   17632
 k-point  4 :  -0.2500-0.2500 0.2500  plane waves:   17636

 maximum and minimum number of plane-waves per node :      4435     4383

 maximum number of plane-waves:     17637
 maximum index in each direction: 
   IXMAX=   16   IYMAX=   16   IZMAX=   16
   IXMIN=  -16   IYMIN=  -16   IZMIN=  -16


 parallel 3D FFT for wavefunctions:
    minimum data exchange during FFTs selected (reduces bandwidth)
 parallel 3D FFT for charge:
    minimum data exchange during FFTs selected (reduces bandwidth)


 total amount of memory used by VASP MPI-rank0    51177. kBytes
=======================================================================

   base      :      30000. kBytes
   nonl-proj :       2611. kBytes
   fftplans  :       7001. kBytes
   grid      :      10993. kBytes
   one-center:          6. kBytes
   wavefun   :        566. kBytes
 
     INWAV:  cpu time    0.0000: real time    0.0000
 Broyden mixing: mesh for mixing (old mesh)
   NGX = 31   NGY = 31   NGZ = 33
  (NGX  =128   NGY  =128   NGZ  =140)
  gives a total of  31713 points

 initial charge density was supplied:
 charge density of overlapping atoms calculated
 number of electron       8.0000000 magnetization 
 keeping initial charge density in first step


--------------------------------------------------------------------------------------------------------


 Maximum index for augmentation-charges          274 (set IRDMAX)


--------------------------------------------------------------------------------------------------------


 First call to EWALD:  gamma=   0.179
 Maximum number of real-space cells 3x 3x 3
 Maximum number of reciprocal cells 3x 3x 3

    FEWALD:  cpu time    0.0014: real time    0.0014


--------------------------------------- Iteration      1(   1)  ---------------------------------------


    POTLOK:  cpu time    0.1141: real time    0.1151
    SETDIJ:  cpu time    0.0016: real time    0.0016
     EDDAV:  cpu time    0.1683: real time    0.1683
       DOS:  cpu time    0.0002: real time    0.0002
    --------------------------------------------
      LOOP:  cpu time    0.2841: real time    0.2852

 eigenvalue-minimisations  :    96
 total energy-change (2. order) : 0.1551775E+02  (-0.2050773E+03)
 number of electron       8.0000000 magnetization 
 augmentation part        8.0000000 magnetization 

 Free energy of the ion-electron system (eV)
  ---------------------------------------------------
  alpha Z        PSCENC =         0.24962578
  Ewald energy   TEWEN  =       129.95360084
  -Hartree energ DENC   =      -244.06221170
  -exchange      EXHF   =         0.00000000
  -V(xc)+E(xc)   XCENC  =        22.06682108
  PAW double counting   =       117.05815612     -117.66307307
  entropy T*S    EENTRO =        -0.00000000
  eigenvalues    EBANDS =       -89.12692238
  atomic energy  EATOM  =       197.04175453
  Solvation  Ediel_sol  =         0.00000000
  ---------------------------------------------------
  free energy    TOTEN  =        15.51775121 eV

  energy without entropy =       15.51775121  energy(sigma->0) =       15.51775121


--------------------------------------------------------------------------------------------------------




--------------------------------------- Iteration      1(   2)  ---------------------------------------


     EDDAV:  cpu time    0.1359: real time    0.1359
       DOS:  cpu time    0.0003: real time    0.0003
    --------------------------------------------
      LOOP:  cpu time    0.1362: real time    0.1362

 eigenvalue-minimisations  :    72
 total energy-change (2. order) :-0.3871566E+02  (-0.3871566E+02)
 number of electron       8.0000000 magnetization 
 augmentation part        8.0000000 magnetization 

 Free energy of the ion-electron system (eV)
  ---------------------------------------------------
  alpha Z        PSCENC =         0.24962578
  Ewald energy   TEWEN  =       129.95360084
  -Hartree energ DENC   =      -244.06221170
  -exchange      EXHF   =         0.00000000
  -V(xc)+E(xc)   XCENC  =        22.06682108
  PAW double counting   =       117.05815612     -117.66307307
  entropy T*S    EENTRO =        -0.00000000
  eigenvalues    EBANDS =      -127.84258438
  atomic energy  EATOM  =       197.04175453
  Solvation  Ediel_sol  =         0.00000000
  ---------------------------------------------------
  free energy    TOTEN  =       -23.19791078 eV

  energy without entropy =      -23.19791078  energy(sigma->0) =      -23.19791078


--------------------------------------------------------------------------------------------------------




--------------------------------------- Iteration      1(   3)  ---------------------------------------


     EDDAV:  cpu time    0.1258: real time    0.1258
       DOS:  cpu time    0.0002: real time    0.0002
    --------------------------------------------
      LOOP:  cpu time    0.1260: real time    0.1260

 eigenvalue-minimisations  :    64
 total energy-change (2. order) :-0.4312747E+01  (-0.4312747E+01)
 number of electron       8.0000000 magnetization 
 augmentation part        8.0000000 magnetization 

 Free energy of the ion-electron system (eV)
  ---------------------------------------------------
  alpha Z        PSCENC =         0.24962578
  Ewald energy   TEWEN  =       129.95360084
  -Hartree energ DENC   =      -244.06221170
  -exchange      EXHF   =         0.00000000
  -V(xc)+E(xc)   XCENC  =        22.06682108
  PAW double counting   =       117.05815612     -117.66307307
  entropy T*S    EENTRO =        -0.00000000
  eigenvalues    EBANDS =      -132.15533117
  atomic energy  EATOM  =       197.04175453
  Solvation  Ediel_sol  =         0.00000000
  ---------------------------------------------------
  free energy    TOTEN  =       -27.51065758 eV

  energy without entropy =      -27.51065758  energy(sigma->0) =      -27.51065758


--------------------------------------------------------------------------------------------------------




--------------------------------------- Iteration      1(   4)  ---------------------------------------


     EDDAV:  cpu time    0.2090: real time    0.2090
       DOS:  cpu time    0.0002: real time    0.0002
    --------------------------------------------
      LOOP:  cpu time    0.2092: real time    0.2092

 eigenvalue-minimisations  :   128
 total energy-change (2. order) :-0.1632425E+00  (-0.1632425E+00)
 number of electron       8.0000000 magnetization 
 augmentation part        8.0000000 magnetization 

 Free energy of the ion-electron system (eV)
  ---------------------------------------------------
  alpha Z        PSCENC =         0.24962578
  Ewald energy   TEWEN  =       129.95360084
  -Hartree energ DENC   =      -244.06221170
  -exchange      EXHF   =         0.00000000
  -V(xc)+E(xc)   XCENC  =        22.06682108
  PAW double counting   =       117.05815612     -117.66307307
  entropy T*S    EENTRO =        -0.00000000
  eigenvalues    EBANDS =      -132.31857372
  atomic energy  EATOM  =       197.04175453
  Solvation  Ediel_sol  =         0.00000000
  ---------------------------------------------------
  free energy    TOTEN  =       -27.67390012 eV

  energy without entropy =      -27.67390012  energy(sigma->0) =      -27.67390012


--------------------------------------------------------------------------------------------------------




--------------------------------------- Iteration      1(   5)  ---------------------------------------


     EDDAV:  cpu time    0.1561: real time    0.1561
       DOS:  cpu time    0.0002: real time    0.0002
    CHARGE:  cpu time    0.0156: real time    0.0156
    MIXING:  cpu time    0.0034: real time    0.0034
    --------------------------------------------
      LOOP:  cpu time    0.1753: real time    0.1753

 eigenvalue-minimisations  :    88
 total energy-change (2. order) :-0.4749268E-04  (-0.4749275E-04)
 number of electron       8.0000001 magnetization 
 augmentation part        0.2292408 magnetization 

 Broyden mixing:
  rms(total) = 0.89183E+00    rms(broyden)= 0.89154E+00
  rms(prec ) = 0.12552E+01
  weight for this iteration     100.00

 Free energy of the ion-electron system (eV)
  ---------------------------------------------------
  alpha Z        PSCENC =         0.24962578
  Ewald energy   TEWEN  =       129.95360084
  -Hartree energ DENC   =      -244.06221170
  -exchange      EXHF   =         0.00000000
  -V(xc)+E(xc)   XCENC  =        22.06682108
  PAW double counting   =       117.05815612     -117.66307307
  entropy T*S    EENTRO =        -0.00000000
  eigenvalues    EBANDS =      -132.31862121
  atomic energy  EATOM  =       197.04175453
  Solvation  Ediel_sol  =         0.00000000
  ---------------------------------------------------
  free energy    TOTEN  =       -27.67394762 eV

  energy without entropy =      -27.67394762  energy(sigma->0) =      -27.67394762


--------------------------------------------------------------------------------------------------------




--------------------------------------- Iteration      1(   6)  ---------------------------------------


    POTLOK:  cpu time    0.1097: real time    0.1097
    SETDIJ:  cpu time    0.0017: real time    0.0017
    EDDIAG:  cpu time    0.0305: real time    0.0305
  RMM-DIIS:  cpu time    0.1243: real time    0.1243
    ORTHCH:  cpu time    0.0014: real time    0.0014
       DOS:  cpu time    0.0002: real time    0.0002
    CHARGE:  cpu time    0.0150: real time    0.0151
    MIXING:  cpu time    0.0036: real time    0.0036
    --------------------------------------------
      LOOP:  cpu time    0.2864: real time    0.2865

 eigenvalue-minimisations  :    64
 total energy-change (2. order) : 0.3022458E+01  (-0.5616241E+00)
 number of electron       8.0000001 magnetization 
 augmentation part        0.2019807 magnetization 

 Broyden mixing:
  rms(total) = 0.43812E+00    rms(broyden)= 0.43801E+00
  rms(prec ) = 0.56633E+00
  weight for this iteration     100.00

 eigenvalues of (default mixing * dielectric matrix)
  average eigenvalue GAMMA=   1.3115
  1.3115

 Free energy of the ion-electron system (eV)
  ---------------------------------------------------
  alpha Z        PSCENC =         0.24962578
  Ewald energy   TEWEN  =       129.95360084
  -Hartree energ DENC   =      -264.21745637
  -exchange      EXHF   =         0.00000000
  -V(xc)+E(xc)   XCENC  =        23.29089849
  PAW double counting   =       242.04699045     -242.83280206
  entropy T*S    EENTRO =        -0.00000000
  eigenvalues    EBANDS =      -110.18410173
  atomic energy  EATOM  =       197.04175453
  Solvation  Ediel_sol  =         0.00000000
  ---------------------------------------------------
  free energy    TOTEN  =       -24.65149007 eV

  energy without entropy =      -24.65149007  energy(sigma->0) =      -24.65149007


--------------------------------------------------------------------------------------------------------




--------------------------------------- Iteration      1(   7)  ---------------------------------------


    POTLOK:  cpu time    0.1106: real time    0.1106
    SETDIJ:  cpu time    0.0016: real time    0.0016
    EDDIAG:  cpu time    0.0286: real time    0.0286
  RMM-DIIS:  cpu time    0.1239: real time    0.1239
    ORTHCH:  cpu time    0.0013: real time    0.0013
       DOS:  cpu time    0.0002: real time    0.0002
    CHARGE:  cpu time    0.0142: real time    0.0142
    MIXING:  cpu time    0.0037: real time    0.0037
    --------------------------------------------
      LOOP:  cpu time    0.2841: real time    0.2841

 eigenvalue-minimisations  :    64
 total energy-change (2. order) : 0.5141113E+00  (-0.1309780E+00)
 number of electron       8.0000001 magnetization 
 augmentation part        0.1910588 magnetization 

 Broyden mixing:
  rms(total) = 0.23191E+00    rms(broyden)= 0.23184E+00
  rms(prec ) = 0.27871E+00
  weight for this iteration     100.00

 eigenvalues of (default mixing * dielectric matrix)
  average eigenvalue GAMMA=   1.8442
  1.4673  2.2212

 Free energy of the ion-electron system (eV)
  ---------------------------------------------------
  alpha Z        PSCENC =         0.24962578
  Ewald energy   TEWEN  =       129.95360084
  -Hartree energ DENC   =      -276.27138367
  -exchange      EXHF   =         0.00000000
  -V(xc)+E(xc)   XCENC  =        24.17241435
  PAW double counting   =       374.92634016     -375.75468838
  entropy T*S    EENTRO =        -0.00000000
  eigenvalues    EBANDS =       -98.45504236
  atomic energy  EATOM  =       197.04175453
  Solvation  Ediel_sol  =         0.00000000
  ---------------------------------------------------
  free energy    TOTEN  =       -24.13737874 eV

  energy without entropy =      -24.13737874  energy(sigma->0) =      -24.13737874


--------------------------------------------------------------------------------------------------------




--------------------------------------- Iteration      1(   8)  ---------------------------------------


    POTLOK:  cpu time    0.1105: real time    0.1105
    SETDIJ:  cpu time    0.0015: real time    0.0015
    EDDIAG:  cpu time    0.0281: real time    0.0281
  RMM-DIIS:  cpu time    0.1250: real time    0.1250
    ORTHCH:  cpu time    0.0014: real time    0.0014
       DOS:  cpu time    0.0002: real time    0.0002
    CHARGE:  cpu time    0.0142: real time    0.0142
    MIXING:  cpu time    0.0040: real time    0.0040
    --------------------------------------------
      LOOP:  cpu time    0.2849: real time    0.2849

 eigenvalue-minimisations  :    64
 total energy-change (2. order) : 0.1478085E+00  (-0.1634121E-01)
 number of electron       8.0000001 magnetization 
 augmentation part        0.1896386 magnetization 

 Broyden mixing:
  rms(total) = 0.22442E-01    rms(broyden)= 0.22409E-01
  rms(prec ) = 0.52461E-01
  weight for this iteration     100.00

 eigenvalues of (default mixing * dielectric matrix)
  average eigenvalue GAMMA=   1.5554
  2.2473  1.0005  1.4183

 Free energy of the ion-electron system (eV)
  ---------------------------------------------------
  alpha Z        PSCENC =         0.24962578
  Ewald energy   TEWEN  =       129.95360084
  -Hartree energ DENC   =      -281.70705471
  -exchange      EXHF   =         0.00000000
  -V(xc)+E(xc)   XCENC  =        24.71063397
  PAW double counting   =       488.99122906     -489.78729811
  entropy T*S    EENTRO =        -0.00000000
  eigenvalues    EBANDS =       -93.44206163
  atomic energy  EATOM  =       197.04175453
  Solvation  Ediel_sol  =         0.00000000
  ---------------------------------------------------
  free energy    TOTEN  =       -23.98957027 eV

  energy without entropy =      -23.98957027  energy(sigma->0) =      -23.98957027


--------------------------------------------------------------------------------------------------------




--------------------------------------- Iteration      1(   9)  ---------------------------------------


    POTLOK:  cpu time    0.1103: real time    0.1103
    SETDIJ:  cpu time    0.0015: real time    0.0015
    EDDIAG:  cpu time    0.0281: real time    0.0281
  RMM-DIIS:  cpu time    0.1254: real time    0.1254
    ORTHCH:  cpu time    0.0013: real time    0.0013
       DOS:  cpu time    0.0002: real time    0.0002
    CHARGE:  cpu time    0.0141: real time    0.0141
    MIXING:  cpu time    0.0039: real time    0.0039
    --------------------------------------------
      LOOP:  cpu time    0.2849: real time    0.2849

 eigenvalue-minimisations  :    64
 total energy-change (2. order) : 0.5684649E-02  (-0.1126122E-02)
 number of electron       8.0000001 magnetization 
 augmentation part        0.1890512 magnetization 

 Broyden mixing:
  rms(total) = 0.19750E-01    rms(broyden)= 0.19745E-01
  rms(prec ) = 0.40395E-01
  weight for this iteration     100.00

 eigenvalues of (default mixing * dielectric matrix)
  average eigenvalue GAMMA=   2.1003
  1.0037  1.3848  3.0064  3.0064

 Free energy of the ion-electron system (eV)
  ---------------------------------------------------
  alpha Z        PSCENC =         0.24962578
  Ewald energy   TEWEN  =       129.95360084
  -Hartree energ DENC   =      -282.98075761
  -exchange      EXHF   =         0.00000000
  -V(xc)+E(xc)   XCENC  =        24.78164753
  PAW double counting   =       492.93514736     -493.73377643
  entropy T*S    EENTRO =        -0.00000000
  eigenvalues    EBANDS =       -92.23112762
  atomic energy  EATOM  =       197.04175453
  Solvation  Ediel_sol  =         0.00000000
  ---------------------------------------------------
  free energy    TOTEN  =       -23.98388562 eV

  energy without entropy =      -23.98388562  energy(sigma->0) =      -23.98388562


--------------------------------------------------------------------------------------------------------




--------------------------------------- Iteration      1(  10)  ---------------------------------------


    POTLOK:  cpu time    0.1061: real time    0.1061
    SETDIJ:  cpu time    0.0016: real time    0.0016
    EDDIAG:  cpu time    0.0283: real time    0.0283
  RMM-DIIS:  cpu time    0.1253: real time    0.1253
    ORTHCH:  cpu time    0.0013: real time    0.0013
       DOS:  cpu time    0.0002: real time    0.0002
    CHARGE:  cpu time    0.0140: real time    0.0140
    MIXING:  cpu time    0.0039: real time    0.0039
    --------------------------------------------
      LOOP:  cpu time    0.2807: real time    0.2807

 eigenvalue-minimisations  :    64
 total energy-change (2. order) : 0.5896516E-02  (-0.2345737E-02)
 number of electron       8.0000001 magnetization 
 augmentation part        0.1880171 magnetization 

 Broyden mixing:
  rms(total) = 0.27855E-01    rms(broyden)= 0.27853E-01
  rms(prec ) = 0.35145E-01
  weight for this iteration     100.00

 eigenvalues of (default mixing * dielectric matrix)
  average eigenvalue GAMMA=   1.7802
  3.0529  2.4388  1.2171  1.2171  0.9752

 Free energy of the ion-electron system (eV)
  ---------------------------------------------------
  alpha Z        PSCENC =         0.24962578
  Ewald energy   TEWEN  =       129.95360084
  -Hartree energ DENC   =      -285.17210265
  -exchange      EXHF   =         0.00000000
  -V(xc)+E(xc)   XCENC  =        24.85049707
  PAW double counting   =       476.41045650     -477.21256168
  entropy T*S    EENTRO =        -0.00000000
  eigenvalues    EBANDS =       -90.09925950
  atomic energy  EATOM  =       197.04175453
  Solvation  Ediel_sol  =         0.00000000
  ---------------------------------------------------
  free energy    TOTEN  =       -23.97798910 eV

  energy without entropy =      -23.97798910  energy(sigma->0) =      -23.97798910


--------------------------------------------------------------------------------------------------------




--------------------------------------- Iteration      1(  11)  ---------------------------------------


    POTLOK:  cpu time    0.1061: real time    0.1061
    SETDIJ:  cpu time    0.0014: real time    0.0014
    EDDIAG:  cpu time    0.0279: real time    0.0279
  RMM-DIIS:  cpu time    0.1214: real time    0.1214
    ORTHCH:  cpu time    0.0013: real time    0.0013
       DOS:  cpu time    0.0002: real time    0.0002
    CHARGE:  cpu time    0.0139: real time    0.0139
    MIXING:  cpu time    0.0042: real time    0.0042
    --------------------------------------------
      LOOP:  cpu time    0.2764: real time    0.2764

 eigenvalue-minimisations  :    64
 total energy-change (2. order) :-0.5681570E-03  (-0.6710974E-03)
 number of electron       8.0000001 magnetization 
 augmentation part        0.1883334 magnetization 

 Broyden mixing:
  rms(total) = 0.69507E-02    rms(broyden)= 0.69471E-02
  rms(prec ) = 0.13057E-01
  weight for this iteration     100.00

 eigenvalues of (default mixing * dielectric matrix)
  average eigenvalue GAMMA=   2.2562
  4.6936  3.0995  2.4306  1.3088  1.0023  1.0023

 Free energy of the ion-electron system (eV)
  ---------------------------------------------------
  alpha Z        PSCENC =         0.24962578
  Ewald energy   TEWEN  =       129.95360084
  -Hartree energ DENC   =      -285.08804956
  -exchange      EXHF   =         0.00000000
  -V(xc)+E(xc)   XCENC  =        24.86531546
  PAW double counting   =       485.80587411     -486.60092308
  entropy T*S    EENTRO =        -0.00000000
  eigenvalues    EBANDS =       -90.20575534
  atomic energy  EATOM  =       197.04175453
  Solvation  Ediel_sol  =         0.00000000
  ---------------------------------------------------
  free energy    TOTEN  =       -23.97855726 eV

  energy without entropy =      -23.97855726  energy(sigma->0) =      -23.97855726


--------------------------------------------------------------------------------------------------------




--------------------------------------- Iteration      1(  12)  ---------------------------------------


    POTLOK:  cpu time    0.0996: real time    0.0996
    SETDIJ:  cpu time    0.0016: real time    0.0016
    EDDIAG:  cpu time    0.0278: real time    0.0278
  RMM-DIIS:  cpu time    0.1245: real time    0.1245
    ORTHCH:  cpu time    0.0013: real time    0.0013
       DOS:  cpu time    0.0002: real time    0.0002
    CHARGE:  cpu time    0.0140: real time    0.0140
    MIXING:  cpu time    0.0044: real time    0.0044
    --------------------------------------------
      LOOP:  cpu time    0.2734: real time    0.2734

 eigenvalue-minimisations  :    64
 total energy-change (2. order) :-0.9720602E-02  (-0.3908739E-03)
 number of electron       8.0000001 magnetization 
 augmentation part        0.1885763 magnetization 

 Broyden mixing:
  rms(total) = 0.12365E-01    rms(broyden)= 0.12363E-01
  rms(prec ) = 0.16063E-01
  weight for this iteration     100.00

 eigenvalues of (default mixing * dielectric matrix)
  average eigenvalue GAMMA=   2.0095
  4.7371  2.8995  2.4302  1.2504  0.9938  0.9938  0.7614

 Free energy of the ion-electron system (eV)
  ---------------------------------------------------
  alpha Z        PSCENC =         0.24962578
  Ewald energy   TEWEN  =       129.95360084
  -Hartree energ DENC   =      -285.28354297
  -exchange      EXHF   =         0.00000000
  -V(xc)+E(xc)   XCENC  =        24.85798769
  PAW double counting   =       483.01876943     -483.81220265
  entropy T*S    EENTRO =        -0.00000000
  eigenvalues    EBANDS =       -90.01427052
  atomic energy  EATOM  =       197.04175453
  Solvation  Ediel_sol  =         0.00000000
  ---------------------------------------------------
  free energy    TOTEN  =       -23.98827786 eV

  energy without entropy =      -23.98827786  energy(sigma->0) =      -23.98827786


--------------------------------------------------------------------------------------------------------




--------------------------------------- Iteration      1(  13)  ---------------------------------------


    POTLOK:  cpu time    0.0999: real time    0.1000
    SETDIJ:  cpu time    0.0016: real time    0.0016
    EDDIAG:  cpu time    0.0278: real time    0.0278
  RMM-DIIS:  cpu time    0.1243: real time    0.1243
    ORTHCH:  cpu time    0.0013: real time    0.0013
       DOS:  cpu time    0.0002: real time    0.0002
    CHARGE:  cpu time    0.0138: real time    0.0138
    MIXING:  cpu time    0.0044: real time    0.0044
    --------------------------------------------
      LOOP:  cpu time    0.2733: real time    0.2733

 eigenvalue-minimisations  :    64
 total energy-change (2. order) :-0.4420134E-03  (-0.8336395E-04)
 number of electron       8.0000001 magnetization 
 augmentation part        0.1883561 magnetization 

 Broyden mixing:
  rms(total) = 0.53782E-02    rms(broyden)= 0.53780E-02
  rms(prec ) = 0.72003E-02
  weight for this iteration     100.00

 eigenvalues of (default mixing * dielectric matrix)
  average eigenvalue GAMMA=   2.3721
  5.9861  3.8923  2.4988  2.2590  1.2316  1.2316  0.9929  0.8840

 Free energy of the ion-electron system (eV)
  ---------------------------------------------------
  alpha Z        PSCENC =         0.24962578
  Ewald energy   TEWEN  =       129.95360084
  -Hartree energ DENC   =      -285.46578410
  -exchange      EXHF   =         0.00000000
  -V(xc)+E(xc)   XCENC  =        24.86336567
  PAW double counting   =       482.82286576     -483.61861196
  entropy T*S    EENTRO =        -0.00000000
  eigenvalues    EBANDS =       -89.83553639
  atomic energy  EATOM  =       197.04175453
  Solvation  Ediel_sol  =         0.00000000
  ---------------------------------------------------
  free energy    TOTEN  =       -23.98871987 eV

  energy without entropy =      -23.98871987  energy(sigma->0) =      -23.98871987


--------------------------------------------------------------------------------------------------------




--------------------------------------- Iteration      1(  14)  ---------------------------------------


    POTLOK:  cpu time    0.0986: real time    0.0987
    SETDIJ:  cpu time    0.0015: real time    0.0015
    EDDIAG:  cpu time    0.0277: real time    0.0277
  RMM-DIIS:  cpu time    0.1243: real time    0.1243
    ORTHCH:  cpu time    0.0013: real time    0.0013
       DOS:  cpu time    0.0002: real time    0.0002
    CHARGE:  cpu time    0.0140: real time    0.0140
    MIXING:  cpu time    0.0045: real time    0.0045
    --------------------------------------------
      LOOP:  cpu time    0.2720: real time    0.2721

 eigenvalue-minimisations  :    64
 total energy-change (2. order) :-0.2827384E-02  (-0.1499957E-03)
 number of electron       8.0000001 magnetization 
 augmentation part        0.1881931 magnetization 

 Broyden mixing:
  rms(total) = 0.32284E-02    rms(broyden)= 0.32262E-02
  rms(prec ) = 0.42515E-02
  weight for this iteration     100.00

 eigenvalues of (default mixing * dielectric matrix)
  average eigenvalue GAMMA=   2.3301
  6.4095  4.0409  2.4282  2.4282  1.2747  1.2747  1.2107  0.9997  0.9043

 Free energy of the ion-electron system (eV)
  ---------------------------------------------------
  alpha Z        PSCENC =         0.24962578
  Ewald energy   TEWEN  =       129.95360084
  -Hartree energ DENC   =      -285.49795407
  -exchange      EXHF   =         0.00000000
  -V(xc)+E(xc)   XCENC  =        24.85503950
  PAW double counting   =       482.09427372     -482.89172713
  entropy T*S    EENTRO =        -0.00000000
  eigenvalues    EBANDS =       -89.79616043
  atomic energy  EATOM  =       197.04175453
  Solvation  Ediel_sol  =         0.00000000
  ---------------------------------------------------
  free energy    TOTEN  =       -23.99154726 eV

  energy without entropy =      -23.99154726  energy(sigma->0) =      -23.99154726


--------------------------------------------------------------------------------------------------------




--------------------------------------- Iteration      1(  15)  ---------------------------------------


    POTLOK:  cpu time    0.0994: real time    0.0995
    SETDIJ:  cpu time    0.0015: real time    0.0015
    EDDIAG:  cpu time    0.0279: real time    0.0279
  RMM-DIIS:  cpu time    0.1251: real time    0.1251
    ORTHCH:  cpu time    0.0013: real time    0.0013
       DOS:  cpu time    0.0002: real time    0.0002
    CHARGE:  cpu time    0.0139: real time    0.0139
    MIXING:  cpu time    0.0047: real time    0.0047
    --------------------------------------------
      LOOP:  cpu time    0.2740: real time    0.2741

 eigenvalue-minimisations  :    64
 total energy-change (2. order) :-0.2793987E-03  (-0.9275978E-05)
 number of electron       8.0000001 magnetization 
 augmentation part        0.1881957 magnetization 

 Broyden mixing:
  rms(total) = 0.10536E-02    rms(broyden)= 0.10534E-02
  rms(prec ) = 0.14045E-02
  weight for this iteration     100.00

 eigenvalues of (default mixing * dielectric matrix)
  average eigenvalue GAMMA=   2.5276
  7.4733  4.8359  2.9184  2.5522  2.0273  1.2883  1.2883  0.9980  0.9980  0.8957

 Free energy of the ion-electron system (eV)
  ---------------------------------------------------
  alpha Z        PSCENC =         0.24962578
  Ewald energy   TEWEN  =       129.95360084
  -Hartree energ DENC   =      -285.43944100
  -exchange      EXHF   =         0.00000000
  -V(xc)+E(xc)   XCENC  =        24.85248653
  PAW double counting   =       482.16865167     -482.96514584
  entropy T*S    EENTRO =        -0.00000000
  eigenvalues    EBANDS =       -89.85335918
  atomic energy  EATOM  =       197.04175453
  Solvation  Ediel_sol  =         0.00000000
  ---------------------------------------------------
  free energy    TOTEN  =       -23.99182666 eV

  energy without entropy =      -23.99182666  energy(sigma->0) =      -23.99182666


--------------------------------------------------------------------------------------------------------




--------------------------------------- Iteration      1(  16)  ---------------------------------------


    POTLOK:  cpu time    0.0998: real time    0.0998
    SETDIJ:  cpu time    0.0017: real time    0.0017
    EDDIAG:  cpu time    0.0277: real time    0.0277
  RMM-DIIS:  cpu time    0.1243: real time    0.1243
    ORTHCH:  cpu time    0.0013: real time    0.0013
       DOS:  cpu time    0.0002: real time    0.0002
    CHARGE:  cpu time    0.0141: real time    0.0141
    MIXING:  cpu time    0.0047: real time    0.0047
    --------------------------------------------
      LOOP:  cpu time    0.2738: real time    0.2738

 eigenvalue-minimisations  :    64
 total energy-change (2. order) :-0.1977531E-03  (-0.5716445E-05)
 number of electron       8.0000001 magnetization 
 augmentation part        0.1882275 magnetization 

 Broyden mixing:
  rms(total) = 0.62265E-03    rms(broyden)= 0.62229E-03
  rms(prec ) = 0.85779E-03
  weight for this iteration     100.00

 eigenvalues of (default mixing * dielectric matrix)
  average eigenvalue GAMMA=   2.4691
  7.6024  4.7396  3.3663  2.3713  2.1971  1.3139  1.3139  1.3386  1.0543  0.9312
  0.9312

 Free energy of the ion-electron system (eV)
  ---------------------------------------------------
  alpha Z        PSCENC =         0.24962578
  Ewald energy   TEWEN  =       129.95360084
  -Hartree energ DENC   =      -285.42735963
  -exchange      EXHF   =         0.00000000
  -V(xc)+E(xc)   XCENC  =        24.85243565
  PAW double counting   =       482.18507839     -482.98124310
  entropy T*S    EENTRO =        -0.00000000
  eigenvalues    EBANDS =       -89.86591688
  atomic energy  EATOM  =       197.04175453
  Solvation  Ediel_sol  =         0.00000000
  ---------------------------------------------------
  free energy    TOTEN  =       -23.99202441 eV

  energy without entropy =      -23.99202441  energy(sigma->0) =      -23.99202441


--------------------------------------------------------------------------------------------------------




--------------------------------------- Iteration      1(  17)  ---------------------------------------


    POTLOK:  cpu time    0.1018: real time    0.1018
    SETDIJ:  cpu time    0.0015: real time    0.0015
    EDDIAG:  cpu time    0.0280: real time    0.0280
  RMM-DIIS:  cpu time    0.1245: real time    0.1245
    ORTHCH:  cpu time    0.0013: real time    0.0013
       DOS:  cpu time    0.0002: real time    0.0002
    CHARGE:  cpu time    0.0141: real time    0.0141
    MIXING:  cpu time    0.0051: real time    0.0051
    --------------------------------------------
      LOOP:  cpu time    0.2764: real time    0.2765

 eigenvalue-minimisations  :    64
 total energy-change (2. order) :-0.3627544E-04  (-0.3199079E-05)
 number of electron       8.0000001 magnetization 
 augmentation part        0.1881882 magnetization 

 Broyden mixing:
  rms(total) = 0.63351E-03    rms(broyden)= 0.63343E-03
  rms(prec ) = 0.88180E-03
  weight for this iteration     100.00

 eigenvalues of (default mixing * dielectric matrix)
  average eigenvalue GAMMA=   2.5615
  8.3028  5.2107  3.8539  2.5183  2.5183  1.9270  1.2953  1.2953  1.0219  0.9489
  0.9489  0.8970

 Free energy of the ion-electron system (eV)
  ---------------------------------------------------
  alpha Z        PSCENC =         0.24962578
  Ewald energy   TEWEN  =       129.95360084
  -Hartree energ DENC   =      -285.47527465
  -exchange      EXHF   =         0.00000000
  -V(xc)+E(xc)   XCENC  =        24.85481500
  PAW double counting   =       482.18730731     -482.98385628
  entropy T*S    EENTRO =        -0.00000000
  eigenvalues    EBANDS =       -89.82003323
  atomic energy  EATOM  =       197.04175453
  Solvation  Ediel_sol  =         0.00000000
  ---------------------------------------------------
  free energy    TOTEN  =       -23.99206068 eV

  energy without entropy =      -23.99206068  energy(sigma->0) =      -23.99206068


--------------------------------------------------------------------------------------------------------




--------------------------------------- Iteration      1(  18)  ---------------------------------------


    POTLOK:  cpu time    0.1033: real time    0.1033
    SETDIJ:  cpu time    0.0018: real time    0.0018
    EDDIAG:  cpu time    0.0285: real time    0.0285
  RMM-DIIS:  cpu time    0.1237: real time    0.1237
    ORTHCH:  cpu time    0.0013: real time    0.0013
       DOS:  cpu time    0.0002: real time    0.0002
    CHARGE:  cpu time    0.0142: real time    0.0142
    MIXING:  cpu time    0.0048: real time    0.0048
    --------------------------------------------
      LOOP:  cpu time    0.2778: real time    0.2779

 eigenvalue-minimisations  :    64
 total energy-change (2. order) :-0.8369483E-05  (-0.7953866E-06)
 number of electron       8.0000001 magnetization 
 augmentation part        0.1882065 magnetization 

 Broyden mixing:
  rms(total) = 0.81101E-04    rms(broyden)= 0.80962E-04
  rms(prec ) = 0.11494E-03
  weight for this iteration     100.00

 eigenvalues of (default mixing * dielectric matrix)
  average eigenvalue GAMMA=   2.5763
  8.3723  5.3747  3.9907  2.9856  2.4521  2.1441  1.6991  1.2825  1.2825  0.8963
  0.9883  0.9883  1.0350

 Free energy of the ion-electron system (eV)
  ---------------------------------------------------
  alpha Z        PSCENC =         0.24962578
  Ewald energy   TEWEN  =       129.95360084
  -Hartree energ DENC   =      -285.45179659
  -exchange      EXHF   =         0.00000000
  -V(xc)+E(xc)   XCENC  =        24.85365590
  PAW double counting   =       482.14809423     -482.94441678
  entropy T*S    EENTRO =        -0.00000000
  eigenvalues    EBANDS =       -89.84258696
  atomic energy  EATOM  =       197.04175453
  Solvation  Ediel_sol  =         0.00000000
  ---------------------------------------------------
  free energy    TOTEN  =       -23.99206905 eV

  energy without entropy =      -23.99206905  energy(sigma->0) =      -23.99206905


--------------------------------------------------------------------------------------------------------




--------------------------------------- Iteration      1(  19)  ---------------------------------------


    POTLOK:  cpu time    0.1050: real time    0.1050
    SETDIJ:  cpu time    0.0016: real time    0.0016
    EDDIAG:  cpu time    0.0278: real time    0.0278
  RMM-DIIS:  cpu time    0.0984: real time    0.0984
    ORTHCH:  cpu time    0.0013: real time    0.0013
       DOS:  cpu time    0.0002: real time    0.0002
    CHARGE:  cpu time    0.0141: real time    0.0141
    MIXING:  cpu time    0.0051: real time    0.0051
    --------------------------------------------
      LOOP:  cpu time    0.2535: real time    0.2535

 eigenvalue-minimisations  :    48
 total energy-change (2. order) :-0.3443339E-05  (-0.2866031E-07)
 number of electron       8.0000001 magnetization 
 augmentation part        0.1882089 magnetization 

 Broyden mixing:
  rms(total) = 0.27088E-04    rms(broyden)= 0.27029E-04
  rms(prec ) = 0.51464E-04
  weight for this iteration     100.00

 eigenvalues of (default mixing * dielectric matrix)
  average eigenvalue GAMMA=   2.5627
  8.4311  5.5506  4.0267  3.5846  2.4531  2.4531  1.9743  1.2838  1.2838  1.0253
  0.9060  0.9634  0.9706  0.9706

 Free energy of the ion-electron system (eV)
  ---------------------------------------------------
  alpha Z        PSCENC =         0.24962578
  Ewald energy   TEWEN  =       129.95360084
  -Hartree energ DENC   =      -285.45044744
  -exchange      EXHF   =         0.00000000
  -V(xc)+E(xc)   XCENC  =        24.85346898
  PAW double counting   =       482.13592541     -482.93226203
  entropy T*S    EENTRO =        -0.00000000
  eigenvalues    EBANDS =       -89.84373857
  atomic energy  EATOM  =       197.04175453
  Solvation  Ediel_sol  =         0.00000000
  ---------------------------------------------------
  free energy    TOTEN  =       -23.99207250 eV

  energy without entropy =      -23.99207250  energy(sigma->0) =      -23.99207250


--------------------------------------------------------------------------------------------------------




--------------------------------------- Iteration      1(  20)  ---------------------------------------


    POTLOK:  cpu time    0.1048: real time    0.1048
    SETDIJ:  cpu time    0.0016: real time    0.0016
    EDDIAG:  cpu time    0.0286: real time    0.0286
  RMM-DIIS:  cpu time    0.0973: real time    0.0974
    ORTHCH:  cpu time    0.0013: real time    0.0013
       DOS:  cpu time    0.0002: real time    0.0002
    --------------------------------------------
      LOOP:  cpu time    0.2339: real time    0.2339

 eigenvalue-minimisations  :    44
 total energy-change (2. order) :-0.9262502E-06  (-0.9608140E-08)
 number of electron       8.0000001 magnetization 
 augmentation part        0.1882089 magnetization 

 Free energy of the ion-electron system (eV)
  ---------------------------------------------------
  alpha Z        PSCENC =         0.24962578
  Ewald energy   TEWEN  =       129.95360084
  -Hartree energ DENC   =      -285.44995706
  -exchange      EXHF   =         0.00000000
  -V(xc)+E(xc)   XCENC  =        24.85339597
  PAW double counting   =       482.13711074     -482.93345757
  entropy T*S    EENTRO =        -0.00000000
  eigenvalues    EBANDS =       -89.84414666
  atomic energy  EATOM  =       197.04175453
  Solvation  Ediel_sol  =         0.00000000
  ---------------------------------------------------
  free energy    TOTEN  =       -23.99207342 eV

  energy without entropy =      -23.99207342  energy(sigma->0) =      -23.99207342


--------------------------------------------------------------------------------------------------------




 average (electrostatic) potential at core
  the test charge radii are     0.5201  0.6991
  (the norm of the test charge is              1.0000)
       1 -41.4611       2 -41.7696       3 -41.6193       4 -41.3942       5 -57.8982
 
 
 
 E-fermi :  -8.1887     XC(G=0):  -0.7165     alpha+bet : -0.2171


 k-point     1 :       0.2500    0.2500    0.2500
  band No.  band energies     occupation 
      1     -16.9614      2.00000
      2      -9.4786      2.00000
      3      -9.3176      2.00000
      4      -9.1646      2.00000
      5      -0.3039      0.00000
      6       0.5835      0.00000
      7       0.7002      0.00000
      8       0.7284      0.00000

 k-point     2 :      -0.2500    0.2500    0.2500
  band No.  band energies     occupation 
      1     -16.9614      2.00000
      2      -9.4784      2.00000
      3      -9.3176      2.00000
      4      -9.1647      2.00000
      5      -0.2982      0.00000
      6       0.5728      0.00000
      7       0.6767      0.00000
      8       0.7173      0.00000

 k-point     3 :       0.2500   -0.2500    0.2500
  band No.  band energies     occupation 
      1     -16.9614      2.00000
      2      -9.4785      2.00000
      3      -9.3176      2.00000
      4      -9.1647      2.00000
      5      -0.2989      0.00000
      6       0.5733      0.00000
      7       0.6812      0.00000
      8       0.7188      0.00000

 k-point     4 :      -0.2500   -0.2500    0.2500
  band No.  band energies     occupation 
      1     -16.9614      2.00000
      2      -9.4784      2.00000
      3      -9.3176      2.00000
      4      -9.1647      2.00000
      5      -0.2992      0.00000
      6       0.5698      0.00000
      7       0.6893      0.00000
      8       0.7200      0.00000


--------------------------------------------------------------------------------------------------------


 soft charge-density along one line, spin component           1
         0         1         2         3         4         5         6         7         8         9
 total charge-density along one line
 
 pseudopotential strength for first ion, spin component:           1
 -2.341  -4.033  -0.001  -0.001   0.001
 -4.033  -6.863  -0.003  -0.004   0.002
 -0.001  -0.003  -0.338   0.002  -0.001
 -0.001  -0.004   0.002  -0.336  -0.001
  0.001   0.002  -0.001  -0.001  -0.339
 total augmentation occupancy for first ion, spin component:           1
  3.535  -0.636   0.230   0.337  -0.126
 -0.636   0.128  -0.043  -0.062   0.024
  0.230  -0.043   0.021   0.018  -0.007
  0.337  -0.062   0.018   0.035  -0.010
 -0.126   0.024  -0.007  -0.010   0.013


------------------------ aborting loop because EDIFF is reached ----------------------------------------


    CHARGE:  cpu time    0.0136: real time    0.0136
    FORLOC:  cpu time    0.0094: real time    0.0094
    FORNL :  cpu time    0.0165: real time    0.0165
    STRESS:  cpu time    0.1307: real time    0.1308
    FORCOR:  cpu time    0.1054: real time    0.1054
    FORHAR:  cpu time    0.0338: real time    0.0338
    MIXING:  cpu time    0.0061: real time    0.0061
    OFIELD:  cpu time    0.0000: real time    0.0000

  FORCE on cell =-STRESS in cart. coord.  units (eV):
  Direction    XX          YY          ZZ          XY          YZ          ZX
  --------------------------------------------------------------------------------------
  Alpha Z     0.24963     0.24963     0.24963
  Ewald      46.70241    42.49711    40.75406     2.34684     1.03948     1.32748
  Hartree    97.10744    96.13063    92.21411     0.66588     0.29815     0.46298
  E(xc)     -27.33853   -27.34442   -27.31166     0.00941     0.00381     0.00606
  Local    -201.75821  -197.71905  -191.79427    -2.54001    -1.12504    -1.56667
  n-local   -16.25718   -16.15591   -16.05085    -0.01772    -0.01194     0.00262
  augment     0.10257     0.11419     0.11499    -0.00383    -0.00171    -0.00175
  Kinetic   102.26582   102.50182   100.87292    -0.44079    -0.16668    -0.31045
  Fock        0.00000     0.00000     0.00000     0.00000     0.00000     0.00000
  -------------------------------------------------------------------------------------
  Total       1.07395     0.27398    -0.95107     0.01977     0.03607    -0.07974
  in kB       1.77304     0.45232    -1.57017     0.03263     0.05954    -0.13164
  external pressure =        0.22 kB  Pullay stress =        0.00 kB

  kinetic pressure (ideal gas correction) =      0.00 kB
  total pressure  =      0.22 kB
  Total+kin.     1.773       0.452      -1.570       0.033       0.060      -0.132

 VOLUME and BASIS-vectors are now :
 -----------------------------------------------------------------------------
  energy-cutoff  :      400.00
  volume of cell :      970.46
      direct lattice vectors                 reciprocal lattice vectors
     9.718996754  0.000000000  0.000000000     0.102891278 -0.001384308 -0.001358244
     0.131461035  9.771086369  0.000000000     0.000000000  0.102342765 -0.000908295
     0.136119861  0.090694568 10.219072504     0.000000000  0.000000000  0.097856239

  length of vectors
     9.718996754  9.771970673 10.220381449     0.102909554  0.102346796  0.097856239


 FORCES acting on ions
    electron-ion (+dipol)            ewald-force                    non-local-force                 convergence-correction
 -----------------------------------------------------------------------------------------------
   -.158E+02 0.287E+02 0.416E+02   0.176E+02 -.317E+02 -.457E+02   -.160E+01 0.293E+01 0.431E+01   0.342E-04 -.637E-04 -.130E-03
   0.541E+02 -.617E+01 0.374E+01   -.613E+02 0.707E+01 -.417E+01   0.599E+01 -.665E+00 0.439E+00   -.134E-03 0.276E-04 -.149E-04
   -.246E+02 -.478E+02 0.121E+01   0.275E+02 0.535E+02 -.140E+01   -.266E+01 -.512E+01 0.121E+00   0.465E-04 0.123E-03 -.105E-04
   -.119E+02 0.233E+02 -.456E+02   0.130E+02 -.256E+02 0.498E+02   -.120E+01 0.232E+01 -.463E+01   0.234E-04 -.541E-04 0.137E-03
   -.263E+01 0.283E+01 -.129E+01   0.322E+01 -.334E+01 0.152E+01   0.360E+00 -.251E+00 0.689E-01   -.464E-04 0.662E-04 -.360E-04
 -----------------------------------------------------------------------------------------------
   -.903E+00 0.795E+00 -.311E+00   0.533E-14 -.355E-14 0.000E+00   0.903E+00 -.795E+00 0.311E+00   -.766E-04 0.990E-04 -.540E-04
 
 
 POSITION                                       TOTAL-FORCE (eV/Angst)
 -----------------------------------------------------------------------------------
      5.33683      4.01163      3.68418         0.133136     -0.084933      0.189157
      3.95714      4.72738      4.47469        -1.265464      0.239378      0.004972
      5.50168      5.56519      4.52349         0.234740      0.610373     -0.062459
      5.25932      4.11591      5.51068        -0.054854     -0.004317     -0.424704
      5.00897      4.60653      4.54828         0.951807     -0.759678      0.292921
 -----------------------------------------------------------------------------------
    total drift:                               -0.000634      0.000824     -0.000114


--------------------------------------------------------------------------------------------------------



  FREE ENERGIE OF THE ION-ELECTRON SYSTEM (eV)
  ---------------------------------------------------
  free  energy   TOTEN  =       -23.99207342 eV

  energy  without entropy=      -23.99207342  energy(sigma->0) =      -23.99207342
 


--------------------------------------------------------------------------------------------------------


    POTLOK:  cpu time    0.1084: real time    0.1084


--------------------------------------------------------------------------------------------------------


           RANDOM_SEED =         172237057                0                0
           RANDOM_SEED =         172237057               30                0
   IONSTEP:  cpu time    0.0023: real time    0.0023

  ENERGY OF THE ELECTRON-ION-THERMOSTAT SYSTEM (eV)
  ---------------------------------------------------
% ion-electron   TOTEN  =       -23.992073  see above
  kinetic energy EKIN   =         0.000744
  kin. lattice  EKIN_LAT=         0.000000  (temperature    1.44 K)
  nose potential ES     =         0.000000
  nose kinetic   EPS    =         0.000000
  ---------------------------------------------------
  total energy   ETOTAL =       -23.991330 eV

  maximum distance moved by ions :      0.32E-03

    WAVPRE:  cpu time    0.0320: real time    0.0320
    FEWALD:  cpu time    0.0005: real time    0.0005
    ORTHCH:  cpu time    0.0075: real time    0.0075
     LOOP+:  cpu time    5.5064: real time    5.5083


--------------------------------------- Iteration      2(   1)  ---------------------------------------


    POTLOK:  cpu time    0.1067: real time    0.1067
    SETDIJ:  cpu time    0.0017: real time    0.0017
     EDDAV:  cpu time    0.1230: real time    0.1230
       DOS:  cpu time    0.0002: real time    0.0002
    CHARGE:  cpu time    0.0135: real time    0.0135
    MIXING:  cpu time    0.0037: real time    0.0037
    --------------------------------------------
      LOOP:  cpu time    0.2488: real time    0.2489

 eigenvalue-minimisations  :    64
 total energy-change (2. order) :-0.5692702E-02  (-0.6609475E-03)
 number of electron       8.0000001 magnetization 
 augmentation part        0.1878712 magnetization 

 Broyden mixing:
  rms(total) = 0.40143E-02    rms(broyden)= 0.40103E-02
  rms(prec ) = 0.48485E-02
  weight for this iteration     100.00

 Free energy of the ion-electron system (eV)
  ---------------------------------------------------
  alpha Z        PSCENC =         0.24962578
  Ewald energy   TEWEN  =       129.72854218
  -Hartree energ DENC   =      -285.32750842
  -exchange      EXHF   =         0.00000000
  -V(xc)+E(xc)   XCENC  =        24.84714956
  PAW double counting   =       482.14305982     -482.93940260
  entropy T*S    EENTRO =        -0.00000000
  eigenvalues    EBANDS =       -89.74098606
  atomic energy  EATOM  =       197.04175453
  Solvation  Ediel_sol  =         0.00000000
  ---------------------------------------------------
  free energy    TOTEN  =       -23.99776520 eV

  energy without entropy =      -23.99776520  energy(sigma->0) =      -23.99776520


--------------------------------------------------------------------------------------------------------




--------------------------------------- Iteration      2(   2)  ---------------------------------------


    POTLOK:  cpu time    0.1071: real time    0.1071
    SETDIJ:  cpu time    0.0016: real time    0.0016
    EDDIAG:  cpu time    0.0274: real time    0.0274
  RMM-DIIS:  cpu time    0.1254: real time    0.1254
    ORTHCH:  cpu time    0.0013: real time    0.0013
       DOS:  cpu time    0.0002: real time    0.0002
    CHARGE:  cpu time    0.0138: real time    0.0138
    MIXING:  cpu time    0.0035: real time    0.0035
    --------------------------------------------
      LOOP:  cpu time    0.2804: real time    0.2804

 eigenvalue-minimisations  :    64
 total energy-change (2. order) : 0.1865033E-04  (-0.1801321E-04)
 number of electron       8.0000001 magnetization 
 augmentation part        0.1878907 magnetization 

 Broyden mixing:
  rms(total) = 0.22833E-02    rms(broyden)= 0.22821E-02
  rms(prec ) = 0.26896E-02
  weight for this iteration     100.00

 eigenvalues of (default mixing * dielectric matrix)
  average eigenvalue GAMMA=   1.8610
  1.8610

 Free energy of the ion-electron system (eV)
  ---------------------------------------------------
  alpha Z        PSCENC =         0.24962578
  Ewald energy   TEWEN  =       129.72854218
  -Hartree energ DENC   =      -285.28283041
  -exchange      EXHF   =         0.00000000
  -V(xc)+E(xc)   XCENC  =        24.84466106
  PAW double counting   =       481.35769144     -482.15351583
  entropy T*S    EENTRO =        -0.00000000
  eigenvalues    EBANDS =       -89.78367531
  atomic energy  EATOM  =       197.04175453
  Solvation  Ediel_sol  =         0.00000000
  ---------------------------------------------------
  free energy    TOTEN  =       -23.99774655 eV

  energy without entropy =      -23.99774655  energy(sigma->0) =      -23.99774655


--------------------------------------------------------------------------------------------------------




--------------------------------------- Iteration      2(   3)  ---------------------------------------


    POTLOK:  cpu time    0.1035: real time    0.1035
    SETDIJ:  cpu time    0.0015: real time    0.0015
    EDDIAG:  cpu time    0.0276: real time    0.0276
  RMM-DIIS:  cpu time    0.1237: real time    0.1238
    ORTHCH:  cpu time    0.0015: real time    0.0015
       DOS:  cpu time    0.0002: real time    0.0002
    CHARGE:  cpu time    0.0139: real time    0.0139
    MIXING:  cpu time    0.0037: real time    0.0037
    --------------------------------------------
      LOOP:  cpu time    0.2756: real time    0.2757

 eigenvalue-minimisations  :    64
 total energy-change (2. order) : 0.3816966E-05  (-0.5834502E-05)
 number of electron       8.0000001 magnetization 
 augmentation part        0.1879430 magnetization 

 Broyden mixing:
  rms(total) = 0.68304E-03    rms(broyden)= 0.68221E-03
  rms(prec ) = 0.84220E-03
  weight for this iteration     100.00

 eigenvalues of (default mixing * dielectric matrix)
  average eigenvalue GAMMA=   1.4971
  1.0572  1.9371

 Free energy of the ion-electron system (eV)
  ---------------------------------------------------
  alpha Z        PSCENC =         0.24962578
  Ewald energy   TEWEN  =       129.72854218
  -Hartree energ DENC   =      -285.24958545
  -exchange      EXHF   =         0.00000000
  -V(xc)+E(xc)   XCENC  =        24.84279656
  PAW double counting   =       480.76084035     -481.55620165
  entropy T*S    EENTRO =        -0.00000000
  eigenvalues    EBANDS =       -89.81551504
  atomic energy  EATOM  =       197.04175453
  Solvation  Ediel_sol  =         0.00000000
  ---------------------------------------------------
  free energy    TOTEN  =       -23.99774273 eV

  energy without entropy =      -23.99774273  energy(sigma->0) =      -23.99774273


--------------------------------------------------------------------------------------------------------




--------------------------------------- Iteration      2(   4)  ---------------------------------------


    POTLOK:  cpu time    0.1035: real time    0.1036
    SETDIJ:  cpu time    0.0016: real time    0.0016
    EDDIAG:  cpu time    0.0275: real time    0.0275
  RMM-DIIS:  cpu time    0.0993: real time    0.0993
    ORTHCH:  cpu time    0.0016: real time    0.0016
       DOS:  cpu time    0.0002: real time    0.0002
    --------------------------------------------
      LOOP:  cpu time    0.2336: real time    0.2336

 eigenvalue-minimisations  :    48
 total energy-change (2. order) : 0.7618010E-06  (-0.1375145E-06)
 number of electron       8.0000001 magnetization 
 augmentation part        0.1879430 magnetization 

 Free energy of the ion-electron system (eV)
  ---------------------------------------------------
  alpha Z        PSCENC =         0.24962578
  Ewald energy   TEWEN  =       129.72854218
  -Hartree energ DENC   =      -285.25849438
  -exchange      EXHF   =         0.00000000
  -V(xc)+E(xc)   XCENC  =        24.84318387
  PAW double counting   =       480.72926934     -481.52473846
  entropy T*S    EENTRO =        -0.00000000
  eigenvalues    EBANDS =       -89.80688483
  atomic energy  EATOM  =       197.04175453
  Solvation  Ediel_sol  =         0.00000000
  ---------------------------------------------------
  free energy    TOTEN  =       -23.99774197 eV

  energy without entropy =      -23.99774197  energy(sigma->0) =      -23.99774197


--------------------------------------------------------------------------------------------------------




 average (electrostatic) potential at core
  the test charge radii are     0.5201  0.6991
  (the norm of the test charge is              1.0000)
       1 -41.4636       2 -41.7407       3 -41.6066       4 -41.4023       5 -57.9039
 
 
 
 E-fermi :  -8.2489     XC(G=0):  -0.6923     alpha+bet : -0.2171


 k-point     1 :       0.2500    0.2500    0.2500
  band No.  band energies     occupation 
      1     -16.9535      2.00000
      2      -9.4671      2.00000
      3      -9.3178      2.00000
      4      -9.1652      2.00000
      5      -0.2956      0.00000
      6       0.6093      0.00000
      7       0.7134      0.00000
      8       0.7447      0.00000

 k-point     2 :      -0.2500    0.2500    0.2500
  band No.  band energies     occupation 
      1     -16.9534      2.00000
      2      -9.4669      2.00000
      3      -9.3179      2.00000
      4      -9.1652      2.00000
      5      -0.2901      0.00000
      6       0.5968      0.00000
      7       0.6914      0.00000
      8       0.7348      0.00000

 k-point     3 :       0.2500   -0.2500    0.2500
  band No.  band energies     occupation 
      1     -16.9535      2.00000
      2      -9.4670      2.00000
      3      -9.3178      2.00000
      4      -9.1652      2.00000
      5      -0.2908      0.00000
      6       0.5971      0.00000
      7       0.6965      0.00000
      8       0.7358      0.00000

 k-point     4 :      -0.2500   -0.2500    0.2500
  band No.  band energies     occupation 
      1     -16.9535      2.00000
      2      -9.4669      2.00000
      3      -9.3178      2.00000
      4      -9.1652      2.00000
      5      -0.2912      0.00000
      6       0.5961      0.00000
      7       0.7032      0.00000
      8       0.7362      0.00000


--------------------------------------------------------------------------------------------------------


 soft charge-density along one line, spin component           1
         0         1         2         3         4         5         6         7         8         9
 total charge-density along one line
 
 pseudopotential strength for first ion, spin component:           1
 -2.341  -4.033  -0.001  -0.001   0.001
 -4.033  -6.863  -0.003  -0.004   0.002
 -0.001  -0.003  -0.338   0.002  -0.001
 -0.001  -0.004   0.002  -0.336  -0.001
  0.001   0.002  -0.001  -0.001  -0.339
 total augmentation occupancy for first ion, spin component:           1
  3.536  -0.637   0.230   0.337  -0.127
 -0.637   0.129  -0.043  -0.062   0.024
  0.230  -0.043   0.021   0.018  -0.007
  0.337  -0.062   0.018   0.035  -0.010
 -0.127   0.024  -0.007  -0.010   0.013


------------------------ aborting loop because EDIFF is reached ----------------------------------------


    CHARGE:  cpu time    0.0136: real time    0.0136
    FORLOC:  cpu time    0.0093: real time    0.0093
    FORNL :  cpu time    0.0165: real time    0.0165
    STRESS:  cpu time    0.1315: real time    0.1315
    FORCOR:  cpu time    0.1063: real time    0.1063
    FORHAR:  cpu time    0.0345: real time    0.0345
    MIXING:  cpu time    0.0047: real time    0.0047
    OFIELD:  cpu time    0.0000: real time    0.0000

  FORCE on cell =-STRESS in cart. coord.  units (eV):
  Direction    XX          YY          ZZ          XY          YZ          ZX
  --------------------------------------------------------------------------------------
  Alpha Z     0.24963     0.24963     0.24963
  Ewald      46.51025    42.48241    40.73586     2.28270     1.00883     1.29988
  Hartree    97.07956    96.08160    92.10701     0.65872     0.29540     0.45731
  E(xc)     -27.32686   -27.33314   -27.30139     0.00928     0.00375     0.00596
  Local    -201.62435  -197.65478  -191.62846    -2.48804    -1.10086    -1.54071
  n-local   -16.22449   -16.13296   -16.03556    -0.01608    -0.01099     0.00274
  augment     0.10395     0.11448     0.11473    -0.00364    -0.00163    -0.00166
  Kinetic   102.16953   102.42562   100.84561    -0.43491    -0.16510    -0.30436
  Fock        0.00000     0.00000     0.00000     0.00000     0.00000     0.00000
  -------------------------------------------------------------------------------------
  Total       0.93721     0.23285    -0.91257     0.00802     0.02941    -0.08084
  in kB       1.54729     0.38443    -1.50662     0.01324     0.04855    -0.13346
  external pressure =        0.14 kB  Pullay stress =        0.00 kB

  kinetic pressure (ideal gas correction) =      0.00 kB
  total pressure  =      0.14 kB
  Total+kin.     1.554       0.386      -1.506       0.012       0.048      -0.133

 VOLUME and BASIS-vectors are now :
 -----------------------------------------------------------------------------
  energy-cutoff  :      400.00
  volume of cell :      970.46
      direct lattice vectors                 reciprocal lattice vectors
     9.718996754  0.000000000  0.000000000     0.102891278 -0.001384308 -0.001358244
     0.131461035  9.771086369  0.000000000     0.000000000  0.102342765 -0.000908295
     0.136119861  0.090694568 10.219072504     0.000000000  0.000000000  0.097856239

  length of vectors
     9.718996754  9.771970673 10.220381449     0.102909554  0.102346796  0.097856239


 FORCES acting on ions
    electron-ion (+dipol)            ewald-force                    non-local-force                 convergence-correction
 -----------------------------------------------------------------------------------------------
   -.158E+02 0.287E+02 0.416E+02   0.176E+02 -.317E+02 -.457E+02   -.160E+01 0.293E+01 0.432E+01   0.826E-03 -.106E-02 -.845E-03
   0.539E+02 -.617E+01 0.372E+01   -.610E+02 0.705E+01 -.414E+01   0.594E+01 -.661E+00 0.433E+00   -.440E-03 -.436E-03 0.748E-04
   -.246E+02 -.477E+02 0.122E+01   0.274E+02 0.534E+02 -.140E+01   -.264E+01 -.510E+01 0.122E+00   0.109E-02 0.477E-03 0.163E-03
   -.119E+02 0.233E+02 -.456E+02   0.130E+02 -.256E+02 0.498E+02   -.120E+01 0.233E+01 -.465E+01   0.811E-03 -.976E-03 0.136E-02
   -.243E+01 0.266E+01 -.122E+01   0.296E+01 -.312E+01 0.143E+01   0.314E+00 -.215E+00 0.566E-01   0.187E-02 -.148E-02 0.546E-03
 -----------------------------------------------------------------------------------------------
   -.816E+00 0.725E+00 -.284E+00   0.533E-14 0.000E+00 0.711E-14   0.810E+00 -.720E+00 0.283E+00   0.416E-02 -.347E-02 0.130E-02
 
 
 POSITION                                       TOTAL-FORCE (eV/Angst)
 -----------------------------------------------------------------------------------
      5.33715      4.01143      3.68464         0.130496     -0.084976      0.181224
      3.95409      4.72796      4.47470        -1.137697      0.223712      0.011406
      5.50224      5.56667      4.52333         0.207607      0.558099     -0.060484
[...]

  ENERGY OF THE ELECTRON-ION-THERMOSTAT SYSTEM (eV)
  ---------------------------------------------------
% ion-electron   TOTEN  =       -24.008851  see above
  kinetic energy EKIN   =         0.017269
  kin. lattice  EKIN_LAT=         0.000000  (temperature   33.40 K)
  nose potential ES     =         0.000000
  nose kinetic   EPS    =         0.000000
  ---------------------------------------------------
  total energy   ETOTAL =       -23.991582 eV

  maximum distance moved by ions :      0.56E-03

    WAVPRE:  cpu time    0.0370: real time    0.0370
    FEWALD:  cpu time    0.0004: real time    0.0004
    ORTHCH:  cpu time    0.0075: real time    0.0075
 Prediction of Wavefunctions ALPHA= 2.139 BETA=-1.173
     LOOP+:  cpu time    1.7394: real time    1.7396


--------------------------------------- Iteration     10(   1)  ---------------------------------------


    POTLOK:  cpu time    0.1039: real time    0.1039
    SETDIJ:  cpu time    0.0018: real time    0.0018
     EDDAV:  cpu time    0.1233: real time    0.1233
       DOS:  cpu time    0.0002: real time    0.0002
    CHARGE:  cpu time    0.0138: real time    0.0138
    MIXING:  cpu time    0.0036: real time    0.0036
    --------------------------------------------
      LOOP:  cpu time    0.2466: real time    0.2467

 eigenvalue-minimisations  :    64
 total energy-change (2. order) : 0.6712446E-02  (-0.6262339E-04)
 number of electron       7.9999998 magnetization 
 augmentation part        0.1825472 magnetization 

 Broyden mixing:
  rms(total) = 0.23354E-03    rms(broyden)= 0.23281E-03
  rms(prec ) = 0.26781E-03
  weight for this iteration     100.00

 Free energy of the ion-electron system (eV)
  ---------------------------------------------------
  alpha Z        PSCENC =         0.24962578
  Ewald energy   TEWEN  =       125.23307404
  -Hartree energ DENC   =      -281.31644917
  -exchange      EXHF   =         0.00000000
  -V(xc)+E(xc)   XCENC  =        24.63480172
  PAW double counting   =       453.81486288     -454.59463577
  entropy T*S    EENTRO =        -0.00000000
  eigenvalues    EBANDS =       -89.06517182
  atomic energy  EATOM  =       197.04175453
  Solvation  Ediel_sol  =         0.00000000
  ---------------------------------------------------
  free energy    TOTEN  =       -24.00213780 eV

  energy without entropy =      -24.00213780  energy(sigma->0) =      -24.00213780


--------------------------------------------------------------------------------------------------------




--------------------------------------- Iteration     10(   2)  ---------------------------------------


    POTLOK:  cpu time    0.1030: real time    0.1030
    SETDIJ:  cpu time    0.0017: real time    0.0017
    EDDIAG:  cpu time    0.0274: real time    0.0274
  RMM-DIIS:  cpu time    0.1253: real time    0.1253
    ORTHCH:  cpu time    0.0016: real time    0.0016
       DOS:  cpu time    0.0002: real time    0.0002
    CHARGE:  cpu time    0.0144: real time    0.0144
    MIXING:  cpu time    0.0035: real time    0.0035
    --------------------------------------------
      LOOP:  cpu time    0.2770: real time    0.2770

 eigenvalue-minimisations  :    64
 total energy-change (2. order) :-0.3078626E-05  (-0.1558820E-05)
 number of electron       7.9999998 magnetization 
 augmentation part        0.1825617 magnetization 

 Broyden mixing:
  rms(total) = 0.26415E-03    rms(broyden)= 0.26381E-03
  rms(prec ) = 0.31646E-03
  weight for this iteration     100.00

 eigenvalues of (default mixing * dielectric matrix)
  average eigenvalue GAMMA=   0.3990
  0.3990

 Free energy of the ion-electron system (eV)
  ---------------------------------------------------
  alpha Z        PSCENC =         0.24962578
  Ewald energy   TEWEN  =       125.23307404
  -Hartree energ DENC   =      -281.31404959
  -exchange      EXHF   =         0.00000000
  -V(xc)+E(xc)   XCENC  =        24.63466517
  PAW double counting   =       453.76724348     -454.54695640
  entropy T*S    EENTRO =        -0.00000000
  eigenvalues    EBANDS =       -89.06749789
  atomic energy  EATOM  =       197.04175453
  Solvation  Ediel_sol  =         0.00000000
  ---------------------------------------------------
  free energy    TOTEN  =       -24.00214088 eV

  energy without entropy =      -24.00214088  energy(sigma->0) =      -24.00214088


--------------------------------------------------------------------------------------------------------




--------------------------------------- Iteration     10(   3)  ---------------------------------------


    POTLOK:  cpu time    0.1037: real time    0.1038
    SETDIJ:  cpu time    0.0016: real time    0.0016
    EDDIAG:  cpu time    0.0273: real time    0.0273
  RMM-DIIS:  cpu time    0.0980: real time    0.0980
    ORTHCH:  cpu time    0.0014: real time    0.0014
       DOS:  cpu time    0.0002: real time    0.0002
    CHARGE:  cpu time    0.0141: real time    0.0141
    MIXING:  cpu time    0.0037: real time    0.0037
    --------------------------------------------
      LOOP:  cpu time    0.2500: real time    0.2501

 eigenvalue-minimisations  :    48
 total energy-change (2. order) :-0.2468206E-06  (-0.2709698E-07)
 number of electron       7.9999998 magnetization 
 augmentation part        0.1825628 magnetization 

 Broyden mixing:
  rms(total) = 0.23878E-03    rms(broyden)= 0.23875E-03
  rms(prec ) = 0.28551E-03
  weight for this iteration     100.00

 eigenvalues of (default mixing * dielectric matrix)
  average eigenvalue GAMMA=   1.6080
  1.3941  1.8218

 Free energy of the ion-electron system (eV)
  ---------------------------------------------------
  alpha Z        PSCENC =         0.24962578
  Ewald energy   TEWEN  =       125.23307404
  -Hartree energ DENC   =      -281.31323396
  -exchange      EXHF   =         0.00000000
  -V(xc)+E(xc)   XCENC  =        24.63463342
  PAW double counting   =       453.75400307     -454.53370793
  entropy T*S    EENTRO =        -0.00000000
  eigenvalues    EBANDS =       -89.06829008
  atomic energy  EATOM  =       197.04175453
  Solvation  Ediel_sol  =         0.00000000
  ---------------------------------------------------
  free energy    TOTEN  =       -24.00214113 eV

  energy without entropy =      -24.00214113  energy(sigma->0) =      -24.00214113


--------------------------------------------------------------------------------------------------------




--------------------------------------- Iteration     10(   4)  ---------------------------------------


    POTLOK:  cpu time    0.1048: real time    0.1048
    SETDIJ:  cpu time    0.0016: real time    0.0016
    EDDIAG:  cpu time    0.0274: real time    0.0274
  RMM-DIIS:  cpu time    0.0980: real time    0.0981
    ORTHCH:  cpu time    0.0015: real time    0.0015
       DOS:  cpu time    0.0002: real time    0.0002
    CHARGE:  cpu time    0.0141: real time    0.0141
    MIXING:  cpu time    0.0037: real time    0.0037
    --------------------------------------------
      LOOP:  cpu time    0.2512: real time    0.2512

 eigenvalue-minimisations  :    48
 total energy-change (2. order) :-0.2445479E-05  (-0.1016685E-06)
 number of electron       7.9999998 magnetization 
 augmentation part        0.1825687 magnetization 

 Broyden mixing:
  rms(total) = 0.62435E-04    rms(broyden)= 0.62377E-04
  rms(prec ) = 0.84768E-04
  weight for this iteration     100.00

 eigenvalues of (default mixing * dielectric matrix)
  average eigenvalue GAMMA=   1.2017
  1.5387  1.5387  0.5279

 Free energy of the ion-electron system (eV)
  ---------------------------------------------------
  alpha Z        PSCENC =         0.24962578
  Ewald energy   TEWEN  =       125.23307404
  -Hartree energ DENC   =      -281.30888249
  -exchange      EXHF   =         0.00000000
  -V(xc)+E(xc)   XCENC  =        24.63448618
  PAW double counting   =       453.68135074     -454.46101789
  entropy T*S    EENTRO =        -0.00000000
  eigenvalues    EBANDS =       -89.07253447
  atomic energy  EATOM  =       197.04175453
  Solvation  Ediel_sol  =         0.00000000
  ---------------------------------------------------
  free energy    TOTEN  =       -24.00214357 eV

  energy without entropy =      -24.00214357  energy(sigma->0) =      -24.00214357


--------------------------------------------------------------------------------------------------------




--------------------------------------- Iteration     10(   5)  ---------------------------------------


    POTLOK:  cpu time    0.1045: real time    0.1045
    SETDIJ:  cpu time    0.0018: real time    0.0018
    EDDIAG:  cpu time    0.0275: real time    0.0275
  RMM-DIIS:  cpu time    0.0978: real time    0.0978
    ORTHCH:  cpu time    0.0014: real time    0.0014
       DOS:  cpu time    0.0002: real time    0.0002
    --------------------------------------------
      LOOP:  cpu time    0.2331: real time    0.2331

 eigenvalue-minimisations  :    48
 total energy-change (2. order) :-0.1441945E-06  (-0.1057554E-07)
 number of electron       7.9999998 magnetization 
 augmentation part        0.1825687 magnetization 

 Free energy of the ion-electron system (eV)
  ---------------------------------------------------
  alpha Z        PSCENC =         0.24962578
  Ewald energy   TEWEN  =       125.23307404
  -Hartree energ DENC   =      -281.30959264
  -exchange      EXHF   =         0.00000000
  -V(xc)+E(xc)   XCENC  =        24.63451643
  PAW double counting   =       453.68278927     -454.46246398
  entropy T*S    EENTRO =        -0.00000000
  eigenvalues    EBANDS =       -89.07184715
  atomic energy  EATOM  =       197.04175453
  Solvation  Ediel_sol  =         0.00000000
  ---------------------------------------------------
  free energy    TOTEN  =       -24.00214371 eV

  energy without entropy =      -24.00214371  energy(sigma->0) =      -24.00214371


--------------------------------------------------------------------------------------------------------




 average (electrostatic) potential at core
  the test charge radii are     0.5201  0.6991
  (the norm of the test charge is              1.0000)
       1 -41.5244       2 -41.2366       3 -41.3618       4 -41.6052       5 -58.0213
 
 
 
 E-fermi :  -8.1848     XC(G=0):  -0.7143     alpha+bet : -0.2171


 k-point     1 :       0.2500    0.2500    0.2500
  band No.  band energies     occupation 
      1     -16.8058      2.00000
      2      -9.3706      2.00000
      3      -9.2240      2.00000
      4      -9.1356      2.00000
      5      -0.3258      0.00000
      6       0.5849      0.00000
      7       0.7025      0.00000
      8       0.7205      0.00000

 k-point     2 :      -0.2500    0.2500    0.2500
  band No.  band energies     occupation 
      1     -16.8057      2.00000
      2      -9.3705      2.00000
      3      -9.2240      2.00000
      4      -9.1356      2.00000
      5      -0.3206      0.00000
      6       0.5690      0.00000
      7       0.6758      0.00000
      8       0.7230      0.00000

 k-point     3 :       0.2500   -0.2500    0.2500
  band No.  band energies     occupation 
      1     -16.8058      2.00000
      2      -9.3706      2.00000
      3      -9.2240      2.00000
      4      -9.1356      2.00000
      5      -0.3215      0.00000
      6       0.5705      0.00000
      7       0.6821      0.00000
      8       0.7228      0.00000

 k-point     4 :      -0.2500   -0.2500    0.2500
  band No.  band energies     occupation 
      1     -16.8058      2.00000
      2      -9.3706      2.00000
      3      -9.2240      2.00000
      4      -9.1356      2.00000
      5      -0.3216      0.00000
      6       0.5679      0.00000
      7       0.6985      0.00000
      8       0.7121      0.00000


--------------------------------------------------------------------------------------------------------


 soft charge-density along one line, spin component           1
         0         1         2         3         4         5         6         7         8         9
 total charge-density along one line
 
 pseudopotential strength for first ion, spin component:           1
 -2.341  -4.034  -0.001  -0.001   0.001
 -4.034  -6.866  -0.003  -0.004   0.002
 -0.001  -0.003  -0.337   0.002  -0.001
 -0.001  -0.004   0.002  -0.336  -0.001
  0.001   0.002  -0.001  -0.001  -0.338
 total augmentation occupancy for first ion, spin component:           1
  3.555  -0.640   0.238   0.338  -0.133
 -0.640   0.129  -0.044  -0.062   0.025
  0.238  -0.044   0.022   0.019  -0.007
  0.338  -0.062   0.019   0.036  -0.011
 -0.133   0.025  -0.007  -0.011   0.013


------------------------ aborting loop because EDIFF is reached ----------------------------------------


    CHARGE:  cpu time    0.0138: real time    0.0138
    FORLOC:  cpu time    0.0093: real time    0.0093
    FORNL :  cpu time    0.0165: real time    0.0165
    STRESS:  cpu time    0.1314: real time    0.1314
    FORCOR:  cpu time    0.1066: real time    0.1066
    FORHAR:  cpu time    0.0348: real time    0.0348
    MIXING:  cpu time    0.0043: real time    0.0043
    OFIELD:  cpu time    0.0001: real time    0.0001

  FORCE on cell =-STRESS in cart. coord.  units (eV):
  Direction    XX          YY          ZZ          XY          YZ          ZX
  --------------------------------------------------------------------------------------
  Alpha Z     0.24963     0.24963     0.24963
  Ewald      42.78265    42.95369    39.49671     0.32649     0.07516     0.40027
  Hartree    96.42416    95.26601    89.62192     0.34356     0.17398     0.22387
  E(xc)     -27.09093   -27.09830   -27.09594     0.00313     0.00137     0.00141
  Local    -198.80158  -197.18410  -187.23196    -0.73674    -0.31453    -0.58229
  n-local   -15.56742   -15.66113   -15.73586     0.01593     0.01009     0.00164
  augment     0.12757     0.12110     0.11319     0.00089     0.00083    -0.00036
  Kinetic   100.23781   100.61628   100.50747    -0.14668    -0.06441    -0.06994
  Fock        0.00000     0.00000     0.00000     0.00000     0.00000     0.00000
  -------------------------------------------------------------------------------------
  Total      -1.63811    -0.73682    -0.07484    -0.19343    -0.11751    -0.02539
  in kB      -2.70445    -1.21645    -0.12355    -0.31934    -0.19401    -0.04193
  external pressure =       -1.35 kB  Pullay stress =        0.00 kB

  kinetic pressure (ideal gas correction) =      0.02 kB
  total pressure  =     -1.33 kB
  Total+kin.    -2.684      -1.201      -0.114      -0.329      -0.193      -0.042

 VOLUME and BASIS-vectors are now :
 -----------------------------------------------------------------------------
  energy-cutoff  :      400.00
  volume of cell :      970.46
      direct lattice vectors                 reciprocal lattice vectors
     9.718996754  0.000000000  0.000000000     0.102891278 -0.001384308 -0.001358244
     0.131461035  9.771086369  0.000000000     0.000000000  0.102342765 -0.000908295
     0.136119861  0.090694568 10.219072504     0.000000000  0.000000000  0.097856239

  length of vectors
     9.718996754  9.771970673 10.220381449     0.102909554  0.102346796  0.097856239


 FORCES acting on ions
    electron-ion (+dipol)            ewald-force                    non-local-force                 convergence-correction
 -----------------------------------------------------------------------------------------------
   -.162E+02 0.290E+02 0.410E+02   0.180E+02 -.321E+02 -.454E+02   -.170E+01 0.304E+01 0.431E+01   0.152E-03 -.206E-03 -.239E-03
   0.505E+02 -.631E+01 0.319E+01   -.544E+02 0.683E+01 -.342E+01   0.494E+01 -.616E+00 0.317E+00   -.262E-03 0.202E-04 0.485E-06
   -.232E+02 -.463E+02 0.145E+01   0.253E+02 0.505E+02 -.159E+01   -.234E+01 -.468E+01 0.146E+00   0.168E-03 0.250E-03 -.846E-06
   -.120E+02 0.242E+02 -.458E+02   0.133E+02 -.270E+02 0.510E+02   -.128E+01 0.258E+01 -.490E+01   0.986E-04 -.162E-03 0.257E-03
   0.172E+01 -.138E+01 0.498E+00   -.214E+01 0.178E+01 -.669E+00   -.455E+00 0.451E+00 -.193E+00   0.981E-04 -.760E-04 0.146E-03
 -----------------------------------------------------------------------------------------------
   0.832E+00 -.774E+00 0.320E+00   0.178E-14 0.000E+00 -.711E-14   -.833E+00 0.774E+00 -.320E+00   0.255E-03 -.174E-03 0.164E-03
 
 
 POSITION                                       TOTAL-FORCE (eV/Angst)
 -----------------------------------------------------------------------------------
      5.34957      4.00231      3.69906         0.039137     -0.056926     -0.030081
      3.89041      4.74402      4.47837         1.039455     -0.102528      0.082107
      5.51167      5.60067      4.51810        -0.280981     -0.485595      0.003526
      5.25707      4.10912      5.48389         0.077640     -0.202939      0.307427
      5.01282      4.60354      4.54942        -0.875729      0.848031     -0.363104
 -----------------------------------------------------------------------------------
    total drift:                               -0.000477      0.000044     -0.000124


--------------------------------------------------------------------------------------------------------



  FREE ENERGIE OF THE ION-ELECTRON SYSTEM (eV)
  ---------------------------------------------------
  free  energy   TOTEN  =       -24.00214371 eV

  energy  without entropy=      -24.00214371  energy(sigma->0) =      -24.00214371
 
 d Force =-0.6707798E-02[-0.737E-02,-0.604E-02]  d Energy =-0.6707172E-02-0.626E-06
 d Force = 0.3589466E+00[ 0.358E+00, 0.360E+00]  d Ewald  = 0.3589442E+00 0.242E-05


--------------------------------------------------------------------------------------------------------


    POTLOK:  cpu time    0.1077: real time    0.1077


--------------------------------------------------------------------------------------------------------


           RANDOM_SEED =         172237057               30                0
   IONSTEP:  cpu time    0.0001: real time    0.0001

  ENERGY OF THE ELECTRON-ION-THERMOSTAT SYSTEM (eV)
  ---------------------------------------------------
% ion-electron   TOTEN  =       -24.002144  see above
  kinetic energy EKIN   =         0.010689
  kin. lattice  EKIN_LAT=         0.000000  (temperature   20.67 K)
  nose potential ES     =         0.000000
  nose kinetic   EPS    =         0.000000
  ---------------------------------------------------
  total energy   ETOTAL =       -23.991454 eV

  maximum distance moved by ions :      0.38E-03


 mean value of Nose-termostat <S>:     1.000 mean value of <T> :    38.072
 mean temperature <T/S>/<1/S>  :    38.072

    WAVPRE:  cpu time    0.0401: real time    0.0401
    FEWALD:  cpu time    0.0005: real time    0.0005
    ORTHCH:  cpu time    0.0074: real time    0.0074
 Prediction of Wavefunctions ALPHA= 2.078 BETA=-1.103
    POTLOK:  cpu time    0.1044: real time    0.1044
    EDDIAG:  cpu time    0.0281: real time    0.0281
     LOOP+:  cpu time    1.8669: real time    1.8671
    4ORBIT:  cpu time    0.0000: real time    0.0000

 total amount of memory used by VASP MPI-rank0    52309. kBytes
=======================================================================

   base      :      30000. kBytes
   nonl-proj :       2611. kBytes
   fftplans  :       7001. kBytes
   grid      :      10993. kBytes
   one-center:          6. kBytes
   wavefun   :       1698. kBytes
 
  
  
 General timing and accounting informations for this job:
 ========================================================
  
                  Total CPU time used (sec):       23.110
                            User time (sec):       21.798
                          System time (sec):        1.312
                         Elapsed time (sec):       23.371
  
                   Maximum memory used (kb):      167288.
                   Average memory used (kb):           0.
  
                          Minor page faults:       239378
                          Major page faults:            0
                 Voluntary context switches:           68
