 vasp.5.4.4.18Apr17-6-g9f103f2a35 (build Jul 09 2021 13:05:15) complex          
  
 executed on             LinuxIFC date 2021.11.04  19:04:05
 running on   16 total cores
 distrk:  each k-point on   16 cores,    1 groups
 distr:  one band on NCORES_PER_BAND=   4 cores,    4 groups


--------------------------------------------------------------------------------------------------------


 INCAR:
 POTCAR:    PAW_PBE H 15Jun2001                   
 POTCAR:    PAW_PBE C 08Apr2002                   
 POTCAR:    PAW_PBE H 15Jun2001                   
   VRHFIN =H: ultrasoft test                                                    
   LEXCH  = PE                                                                  
   EATOM  =    12.4884 eV,    0.9179 Ry                                         
                                                                                
   TITEL  = PAW_PBE H 15Jun2001                                                 
   LULTRA =        F    use ultrasoft PP ?                                      
   IUNSCR =        0    unscreen: 0-lin 1-nonlin 2-no                           
   RPACOR =    0.000    partial core radius                                     
   POMASS =    1.000; ZVAL   =    1.000    mass and valenz                      
   RCORE  =    1.100    outmost cutoff radius                                   
   RWIGS  =    0.700; RWIGS  =    0.370    wigner-seitz radius (au A)           
   ENMAX  =  250.000; ENMIN  =  200.000 eV                                      
   RCLOC  =    0.701    cutoff for local pot                                    
   LCOR   =        T    correct aug charges                                     
   LPAW   =        T    paw PP                                                  
   EAUG   =  400.000                                                            
   RMAX   =    1.123    core radius for proj-oper                               
   RAUG   =    1.200    factor for augmentation sphere                          
   RDEP   =    1.112    radius for radial grids                                 
   RDEPT  =    0.926    core radius for aug-charge                              
                                                                                
   Atomic configuration                                                         
    2 entries                                                                   
     n  l   j            E        occ.                                          
     1  0  0.50        -6.4927   1.0000                                         
     2  1  0.50        -3.4015   0.0000                                         
   Description                                                                  
     l       E           TYP  RCUT    TYP  RCUT                                 
     0     -6.4927494     23  1.100                                             
     0      6.8029130     23  1.100                                             
     1     -4.0817478     23  1.100                                             
  local pseudopotential read in
  atomic valenz-charges read in
  non local Contribution for L=           0  read in
    real space projection operators read in
  non local Contribution for L=           0  read in
    real space projection operators read in
  non local Contribution for L=           1  read in
    real space projection operators read in
    PAW grid and wavefunctions read in
 
   number of l-projection  operators is LMAX  =           3
   number of lm-projection operators is LMMAX =           5
 
 POTCAR:    PAW_PBE C 08Apr2002                   
   VRHFIN =C: s2p2                                                              
   LEXCH  = PE                                                                  
   EATOM  =   147.1560 eV,   10.8157 Ry                                         
                                                                                
   TITEL  = PAW_PBE C 08Apr2002                                                 
   LULTRA =        F    use ultrasoft PP ?                                      
   IUNSCR =        1    unscreen: 0-lin 1-nonlin 2-no                           
   RPACOR =    1.200    partial core radius                                     
   POMASS =   12.011; ZVAL   =    4.000    mass and valenz                      
   RCORE  =    1.500    outmost cutoff radius                                   
   RWIGS  =    1.630; RWIGS  =    0.863    wigner-seitz radius (au A)           
   ENMAX  =  400.000; ENMIN  =  300.000 eV                                      
   ICORE  =        2    local potential                                         
   LCOR   =        T    correct aug charges                                     
   LPAW   =        T    paw PP                                                  
   EAUG   =  644.873                                                            
   DEXC   =    0.000                                                            
   RMAX   =    1.529    core radius for proj-oper                               
   RAUG   =    1.300    factor for augmentation sphere                          
   RDEP   =    1.501    radius for radial grids                                 
   RDEPT  =    1.300    core radius for aug-charge                              
                                                                                
   Atomic configuration                                                         
    4 entries                                                                   
     n  l   j            E        occ.                                          
     1  0  0.50      -273.3789   2.0000                                         
     2  0  0.50       -13.7508   2.0000                                         
     2  1  0.50        -5.2854   2.0000                                         
     3  2  1.50        -5.4423   0.0000                                         
   Description                                                                  
     l       E           TYP  RCUT    TYP  RCUT                                 
     0    -13.7508458     23  1.200                                             
     0     -8.2022199     23  1.200                                             
     1     -5.2854383     23  1.500                                             
     1     34.0145650     23  1.500                                             
     2     -5.4423304      7  1.500                                             
  local pseudopotential read in
  partial core-charges read in
  partial kinetic energy density read in
  atomic valenz-charges read in
  non local Contribution for L=           0  read in
    real space projection operators read in
  non local Contribution for L=           0  read in
    real space projection operators read in
  non local Contribution for L=           1  read in
    real space projection operators read in
  non local Contribution for L=           1  read in
    real space projection operators read in
    PAW grid and wavefunctions read in
 
   number of l-projection  operators is LMAX  =           4
   number of lm-projection operators is LMMAX =           8
 
  PAW_PBE H 15Jun2001                   :
 energy of atom  1       EATOM=  -12.4884
 kinetic energy error for atom=    0.0098 (will be added to EATOM!!)
  PAW_PBE C 08Apr2002                   :
 energy of atom  2       EATOM= -147.1560
 kinetic energy error for atom=    0.0288 (will be added to EATOM!!)
 
 
 POSCAR:  H  C                                   
  positions in cartesian coordinates
  No initial velocities read in
 exchange correlation table for  LEXCH =        8
   RHO(1)=    0.500       N(1)  =     2000
   RHO(2)=  100.500       N(2)  =     4000
 


--------------------------------------------------------------------------------------------------------


 ion  position               nearest neighbor table
   1  0.538  0.407  0.361-   5 1.11
   2  0.395  0.480  0.438-   5 1.09
   3  0.552  0.565  0.443-   5 1.07
   4  0.528  0.417  0.539-   5 1.08
   5  0.503  0.467  0.446-   3 1.07   4 1.08   2 1.09   1 1.11
 

IMPORTANT INFORMATION: All symmetrisations will be switched off!
NOSYMM: (Re-)initialisation of all symmetry stuff for point group C_1.

 
 

Automatic generation of k-mesh.
 generate k-points for:    2    2    2
Space group operators:
 irot       det(A)        alpha          n_x          n_y          n_z        tau_x        tau_y        tau_z
    1     1.000000     0.000001     1.000000     0.000000     0.000000     0.000000     0.000000     0.000000
 
 Subroutine IBZKPT returns following result:
 ===========================================
 
 Found      4 irreducible k-points:
 
 Following reciprocal coordinates:
            Coordinates               Weight
  0.250000  0.250000  0.250000      2.000000
 -0.250000  0.250000  0.250000      2.000000
  0.250000 -0.250000  0.250000      2.000000
 -0.250000 -0.250000  0.250000      2.000000
 
 Following cartesian coordinates:
            Coordinates               Weight
  0.025185  0.026038  0.025249      2.000000
 -0.025185  0.024547  0.024643      2.000000
  0.025185 -0.024547  0.025345      2.000000
 -0.025185 -0.026038  0.024739      2.000000
 


--------------------------------------------------------------------------------------------------------




 Dimension of arrays:
   k-points           NKPTS =      4   k-points in BZ     NKDIM =      4   number of bands    NBANDS=      8
   number of dos      NEDOS =    301   number of ions     NIONS =      5
   non local maximal  LDIM  =      4   non local SUM 2l+1 LMDIM =      8
   total plane-waves  NPLWV = 343000
   max r-space proj   IRMAX =      1   max aug-charges    IRDMAX=   4323
   dimension x,y,z NGX =    70 NGY =   70 NGZ =   70
   dimension x,y,z NGXF=   140 NGYF=  140 NGZF=  140
   support grid    NGXF=   140 NGYF=  140 NGZF=  140
   ions per type =               4   1
   NGX,Y,Z   is equivalent  to a cutoff of  11.72, 11.77, 11.63 a.u.
   NGXF,Y,Z  is equivalent  to a cutoff of  23.45, 23.54, 23.27 a.u.

 SYSTEM =  unknown system                          
 POSCAR =   H  C                                   

 Startparameter for this run:
   NWRITE =      2    write-flag & timer
   PREC   = a         normal or accurate (medium, high low for compatibility)
   ISTART =      0    job   : 0-new  1-cont  2-samecut
   ICHARG =      2    charge: 1-file 2-atom 10-const
   ISPIN  =      1    spin polarized calculation?
   LNONCOLLINEAR =      F non collinear calculations
   LSORBIT =      F    spin-orbit coupling
   INIWAV =      1    electr: 0-lowe 1-rand  2-diag
   LASPH  =      F    aspherical Exc in radial PAW
   METAGGA=      F    non-selfconsistent MetaGGA calc.

 Electronic Relaxation 1
   ENCUT  =  400.0 eV  29.40 Ry    5.42 a.u.  16.19 16.13 16.31*2*pi/ulx,y,z
   ENINI  =  400.0     initial cutoff
   ENAUG  =  644.9 eV  augmentation charge cutoff
   NELM   =    120;   NELMIN=  4; NELMDL= -5     # of ELM steps 
   EDIFF  = 0.1E-05   stopping-criterion for ELM
   LREAL  =      F    real-space projection
   NLSPLINE    = F    spline interpolate recip. space projectors
   LCOMPAT=      F    compatible to vasp.4.4
   GGA_COMPAT  = T    GGA compatible to vasp.4.4-vasp.4.6
   LMAXPAW     = -100 max onsite density
   LMAXMIX     =    2 max onsite mixed and CHGCAR
   VOSKOWN=      0    Vosko Wilk Nusair interpolation
   ROPT   =    0.00000   0.00000
 Ionic relaxation
   EDIFFG = 0.1E-04   stopping-criterion for IOM
   NSW    =     10    number of steps for IOM
   NBLOCK =      1;   KBLOCK =     10    inner block; outer block 
   IBRION =      0    ionic relax: 0-MD 1-quasi-New 2-CG
   NFREE  =      0    steps in history (QN), initial steepest desc. (CG)
   ISIF   =      2    stress and relaxation
   IWAVPR =     12    prediction:  0-non 1-charg 2-wave 3-comb
   ISYM   =      0    0-nonsym 1-usesym 2-fastsym
   LCORR  =      T    Harris-Foulkes like correction to forces

   POTIM  = 0.5000    time-step for ionic-motion
   TEIN   =    0.0    initial temperature
   TEBEG  =    0.0;   TEEND  =   0.0 temperature during run
   SMASS  =  -3.00    Nose mass-parameter (am)
   estimated Nose-frequenzy (Omega)   =  0.10E-29 period in steps =****** mass=  -0.225E-26a.u.
   SCALEE = 1.0000    scale energy and forces
   NPACO  =    256;   APACO  = 16.0  distance and # of slots for P.C.
   PSTRESS=    0.0 pullay stress

  Mass of Ions in am
   POMASS =   1.00 12.01
  Ionic Valenz
   ZVAL   =   1.00  4.00
  Atomic Wigner-Seitz radii
   RWIGS  =  -1.00 -1.00
  virtual crystal weights 
   VCA    =   1.00  1.00
   NELECT =       8.0000    total number of electrons
   NUPDOWN=      -1.0000    fix difference up-down

 DOS related values:
   EMIN   =  10.00;   EMAX   =-10.00  energy-range for DOS
   EFERMI =   0.00
   ISMEAR =     0;   SIGMA  =   0.20  broadening in eV -4-tet -1-fermi 0-gaus

 Electronic relaxation 2 (details)
   IALGO  =     68    algorithm
   LDIAG  =      T    sub-space diagonalisation (order eigenvalues)
   LSUBROT=      F    optimize rotation matrix (better conditioning)
   TURBO    =      0    0=normal 1=particle mesh
   IRESTART =      0    0=no restart 2=restart with 2 vectors
   NREBOOT  =      0    no. of reboots
   NMIN     =      0    reboot dimension
   EREF     =   0.00    reference energy to select bands
   IMIX   =      4    mixing-type and parameters
     AMIX     =   0.40;   BMIX     =  1.00
     AMIX_MAG =   1.60;   BMIX_MAG =  1.00
     AMIN     =   0.10
     WC   =   100.;   INIMIX=   1;  MIXPRE=   1;  MAXMIX= -45

 Intra band minimization:
   WEIMIN = 0.0010     energy-eigenvalue tresh-hold
   EBREAK =  0.31E-07  absolut break condition
   DEPER  =   0.30     relativ break condition  

   TIME   =   0.40     timestep for ELM

  volume/ion in A,a.u.               =     196.28      1324.56
  Fermi-wavevector in a.u.,A,eV,Ry     =   0.329475  0.622618  1.476965  0.108554
  Thomas-Fermi vector in A             =   1.223954
 
 Write flags
   LWAVE        =      F    write WAVECAR
   LDOWNSAMPLE  =      F    k-point downsampling of WAVECAR
   LCHARG       =      F    write CHGCAR
   LVTOT        =      F    write LOCPOT, total local potential
   LVHAR        =      F    write LOCPOT, Hartree potential only
   LELF         =      F    write electronic localiz. function (ELF)
   LORBIT       =      0    0 simple, 1 ext, 2 COOP (PROOUT), +10 PAW based schemes


 Dipole corrections
   LMONO  =      F    monopole corrections only (constant potential shift)
   LDIPOL =      F    correct potential (dipole corrections)
   IDIPOL =      0    1-x, 2-y, 3-z, 4-all directions 
   EPSILON=  1.0000000 bulk dielectric constant

 Exchange correlation treatment:
   GGA     =    --    GGA type
   LEXCH   =     8    internal setting for exchange type
   VOSKOWN=      0    Vosko Wilk Nusair interpolation
   LHFCALC =     F    Hartree Fock is set to
   LHFONE  =     F    Hartree Fock one center treatment
   AEXX    =    0.0000 exact exchange contribution

 Linear response parameters
   LEPSILON=     F    determine dielectric tensor
   LRPA    =     F    only Hartree local field effects (RPA)
   LNABLA  =     F    use nabla operator in PAW spheres
   LVEL    =     F    velocity operator in full k-point grid
   LINTERFAST=   F  fast interpolation
   KINTER  =     0    interpolate to denser k-point grid
   CSHIFT  =0.1000    complex shift for real part using Kramers Kronig
   OMEGAMAX=  -1.0    maximum frequency
   DEG_THRESHOLD= 0.2000000E-02 threshold for treating states as degnerate
   RTIME   =   -0.100 relaxation time in fs
  (WPLASMAI=    0.000 imaginary part of plasma frequency in eV, 0.658/RTIME)
   DFIELD  = 0.0000000 0.0000000 0.0000000 field for delta impulse in time
 
 Orbital magnetization related:
   ORBITALMAG=     F  switch on orbital magnetization
   LCHIMAG   =     F  perturbation theory with respect to B field
   DQ        =  0.001000  dq finite difference perturbation B field
   LLRAUG    =     F  two centre corrections for induced B field



--------------------------------------------------------------------------------------------------------


 molecular dynamics for ions
   using a microcanonical ensemble
 charge density and potential will be updated during run
 non-spin polarized calculation
 RMM-DIIS sequential band-by-band and
  variant of blocked Davidson during initial phase
 perform sub-space diagonalisation
    before iterative eigenvector-optimisation
 modified Broyden-mixing scheme, WC =      100.0
 initial mixing is a Kerker type mixing with AMIX =  0.4000 and BMIX =      1.0000
 Hartree-type preconditioning will be used
 using additional bands            4
 reciprocal scheme for non local part
 use partial core corrections
 calculate Harris-corrections to forces 
   (improved forces if not selfconsistent)
 use gradient corrections 
 use of overlap-Matrix (Vanderbilt PP)
 Gauss-broadening in eV      SIGMA  =   0.20


--------------------------------------------------------------------------------------------------------


  energy-cutoff  :      400.00
  volume of cell :      981.40
      direct lattice vectors                 reciprocal lattice vectors
     9.926491484  0.000000000  0.000000000     0.100740529  0.002982643  0.001210455
    -0.292646349  9.884301654  0.000000000     0.000000000  0.101170526 -0.000191672
    -0.120745721  0.018950021 10.002409530     0.000000000  0.000000000  0.099975911

  length of vectors
     9.926491484  9.888632922 10.003156254     0.100791942  0.101170708  0.099975911


 
 k-points in units of 2pi/SCALE and weight: read from INCAR                         
   0.02518513  0.02603829  0.02524867       0.250
  -0.02518513  0.02454697  0.02464345       0.250
   0.02518513 -0.02454697  0.02534451       0.250
  -0.02518513 -0.02603829  0.02473928       0.250
 
 k-points in reciprocal lattice and weights: read from INCAR                         
   0.25000000  0.25000000  0.25000000       0.250
  -0.25000000  0.25000000  0.25000000       0.250
   0.25000000 -0.25000000  0.25000000       0.250
  -0.25000000 -0.25000000  0.25000000       0.250
 
 position of ions in fractional coordinates (direct lattice) 
   0.53849839  0.40663228  0.36076001
   0.39497867  0.48029685  0.43782741
   0.55216951  0.56516888  0.44279970
   0.52782008  0.41664378  0.53870615
   0.50317270  0.46735876  0.44595759
 
 position of ions in cartesian coordinates  (Angst):
   5.18284001  4.02611248  3.60846941
   3.72732953  4.75569577  4.37932904
   5.26224517  5.59469080  4.42906393
   5.05242580  4.12844128  5.38835951
   4.80412125  4.62796584  4.46065050
 


--------------------------------------------------------------------------------------------------------


 k-point  1 :   0.2500 0.2500 0.2500  plane waves:   17809
 k-point  2 :  -0.2500 0.2500 0.2500  plane waves:   17825
 k-point  3 :   0.2500-0.2500 0.2500  plane waves:   17826
 k-point  4 :  -0.2500-0.2500 0.2500  plane waves:   17836

 maximum and minimum number of plane-waves per node :      4478     4434

 maximum number of plane-waves:     17836
 maximum index in each direction: 
   IXMAX=   16   IYMAX=   16   IZMAX=   16
   IXMIN=  -16   IYMIN=  -16   IZMIN=  -16


 parallel 3D FFT for wavefunctions:
    minimum data exchange during FFTs selected (reduces bandwidth)
 parallel 3D FFT for charge:
    minimum data exchange during FFTs selected (reduces bandwidth)


 total amount of memory used by VASP MPI-rank0    55334. kBytes
=======================================================================

   base      :      30000. kBytes
   nonl-proj :       2652. kBytes
   fftplans  :       8574. kBytes
   grid      :      13527. kBytes
   one-center:          6. kBytes
   wavefun   :        575. kBytes
 
     INWAV:  cpu time    0.0000: real time    0.0001
 Broyden mixing: mesh for mixing (old mesh)
   NGX = 33   NGY = 33   NGZ = 33
  (NGX  =140   NGY  =140   NGZ  =140)
  gives a total of  35937 points

 initial charge density was supplied:
 charge density of overlapping atoms calculated
 number of electron       8.0000000 magnetization 
 keeping initial charge density in first step


--------------------------------------------------------------------------------------------------------


 Maximum index for augmentation-charges          193 (set IRDMAX)


--------------------------------------------------------------------------------------------------------


 First call to EWALD:  gamma=   0.178
 Maximum number of real-space cells 3x 3x 3
 Maximum number of reciprocal cells 3x 3x 3

    FEWALD:  cpu time    0.0026: real time    0.0027


--------------------------------------- Iteration      1(   1)  ---------------------------------------


    POTLOK:  cpu time    0.1619: real time    0.1626
    SETDIJ:  cpu time    0.0035: real time    0.0035
     EDDAV:  cpu time    0.2147: real time    0.2167
       DOS:  cpu time    0.0015: real time    0.0015
    --------------------------------------------
      LOOP:  cpu time    0.3816: real time    0.3844

 eigenvalue-minimisations  :    88
 total energy-change (2. order) : 0.2836298E+02  (-0.1910513E+03)
 number of electron       8.0000000 magnetization 
 augmentation part        8.0000000 magnetization 

 Free energy of the ion-electron system (eV)
  ---------------------------------------------------
  alpha Z        PSCENC =         0.24684186
  Ewald energy   TEWEN  =       130.15064590
  -Hartree energ DENC   =      -244.33937343
  -exchange      EXHF   =         0.00000000
  -V(xc)+E(xc)   XCENC  =        22.06268364
  PAW double counting   =       117.05815612     -117.66307307
  entropy T*S    EENTRO =        -0.07117927
  eigenvalues    EBANDS =       -76.12347910
  atomic energy  EATOM  =       197.04175453
  Solvation  Ediel_sol  =         0.00000000
  ---------------------------------------------------
  free energy    TOTEN  =        28.36297718 eV

  energy without entropy =       28.43415645  energy(sigma->0) =       28.39856681


--------------------------------------------------------------------------------------------------------




--------------------------------------- Iteration      1(   2)  ---------------------------------------


     EDDAV:  cpu time    0.1883: real time    0.1896
       DOS:  cpu time    0.0007: real time    0.0007
    --------------------------------------------
      LOOP:  cpu time    0.1890: real time    0.1903

 eigenvalue-minimisations  :    72
 total energy-change (2. order) :-0.4565002E+02  (-0.3975921E+02)
 number of electron       8.0000000 magnetization 
 augmentation part        8.0000000 magnetization 

 Free energy of the ion-electron system (eV)
  ---------------------------------------------------
  alpha Z        PSCENC =         0.24684186
  Ewald energy   TEWEN  =       130.15064590
  -Hartree energ DENC   =      -244.33937343
  -exchange      EXHF   =         0.00000000
  -V(xc)+E(xc)   XCENC  =        22.06268364
  PAW double counting   =       117.05815612     -117.66307307
  entropy T*S    EENTRO =        -0.00000000
  eigenvalues    EBANDS =      -121.84467393
  atomic energy  EATOM  =       197.04175453
  Solvation  Ediel_sol  =         0.00000000
  ---------------------------------------------------
  free energy    TOTEN  =       -17.28703838 eV

  energy without entropy =      -17.28703838  energy(sigma->0) =      -17.28703838


--------------------------------------------------------------------------------------------------------




--------------------------------------- Iteration      1(   3)  ---------------------------------------


     EDDAV:  cpu time    0.1733: real time    0.1743
       DOS:  cpu time    0.0004: real time    0.0004
    --------------------------------------------
      LOOP:  cpu time    0.1737: real time    0.1747

 eigenvalue-minimisations  :    64
 total energy-change (2. order) :-0.9696024E+01  (-0.9696024E+01)
 number of electron       8.0000000 magnetization 
 augmentation part        8.0000000 magnetization 

 Free energy of the ion-electron system (eV)
  ---------------------------------------------------
  alpha Z        PSCENC =         0.24684186
  Ewald energy   TEWEN  =       130.15064590
  -Hartree energ DENC   =      -244.33937343
  -exchange      EXHF   =         0.00000000
  -V(xc)+E(xc)   XCENC  =        22.06268364
  PAW double counting   =       117.05815612     -117.66307307
  entropy T*S    EENTRO =        -0.00000000
  eigenvalues    EBANDS =      -131.54069775
  atomic energy  EATOM  =       197.04175453
  Solvation  Ediel_sol  =         0.00000000
  ---------------------------------------------------
  free energy    TOTEN  =       -26.98306221 eV

  energy without entropy =      -26.98306221  energy(sigma->0) =      -26.98306221


--------------------------------------------------------------------------------------------------------




--------------------------------------- Iteration      1(   4)  ---------------------------------------


     EDDAV:  cpu time    0.2631: real time    0.2643
       DOS:  cpu time    0.0002: real time    0.0002
    --------------------------------------------
      LOOP:  cpu time    0.2633: real time    0.2645

 eigenvalue-minimisations  :   112
 total energy-change (2. order) :-0.6759290E+00  (-0.6759290E+00)
 number of electron       8.0000000 magnetization 
 augmentation part        8.0000000 magnetization 

 Free energy of the ion-electron system (eV)
  ---------------------------------------------------
  alpha Z        PSCENC =         0.24684186
  Ewald energy   TEWEN  =       130.15064590
  -Hartree energ DENC   =      -244.33937343
  -exchange      EXHF   =         0.00000000
  -V(xc)+E(xc)   XCENC  =        22.06268364
  PAW double counting   =       117.05815612     -117.66307307
  entropy T*S    EENTRO =        -0.00000000
  eigenvalues    EBANDS =      -132.21662670
  atomic energy  EATOM  =       197.04175453
  Solvation  Ediel_sol  =         0.00000000
  ---------------------------------------------------
  free energy    TOTEN  =       -27.65899116 eV

  energy without entropy =      -27.65899116  energy(sigma->0) =      -27.65899116


--------------------------------------------------------------------------------------------------------




--------------------------------------- Iteration      1(   5)  ---------------------------------------


     EDDAV:  cpu time    0.2488: real time    0.2499
       DOS:  cpu time    0.0002: real time    0.0002
    CHARGE:  cpu time    0.0263: real time    0.0264
    MIXING:  cpu time    0.0058: real time    0.0058
    --------------------------------------------
      LOOP:  cpu time    0.2811: real time    0.2824

 eigenvalue-minimisations  :   104
 total energy-change (2. order) :-0.1761366E-01  (-0.1761366E-01)
 number of electron       8.0000002 magnetization 
 augmentation part        0.2288751 magnetization 

 Broyden mixing:
  rms(total) = 0.88990E+00    rms(broyden)= 0.88970E+00
  rms(prec ) = 0.12663E+01
  weight for this iteration     100.00

 Free energy of the ion-electron system (eV)
  ---------------------------------------------------
  alpha Z        PSCENC =         0.24684186
  Ewald energy   TEWEN  =       130.15064590
  -Hartree energ DENC   =      -244.33937343
  -exchange      EXHF   =         0.00000000
  -V(xc)+E(xc)   XCENC  =        22.06268364
  PAW double counting   =       117.05815612     -117.66307307
  entropy T*S    EENTRO =        -0.00000000
  eigenvalues    EBANDS =      -132.23424037
  atomic energy  EATOM  =       197.04175453
  Solvation  Ediel_sol  =         0.00000000
  ---------------------------------------------------
  free energy    TOTEN  =       -27.67660482 eV

  energy without entropy =      -27.67660482  energy(sigma->0) =      -27.67660482


--------------------------------------------------------------------------------------------------------




--------------------------------------- Iteration      1(   6)  ---------------------------------------


    POTLOK:  cpu time    0.1566: real time    0.1577
    SETDIJ:  cpu time    0.0028: real time    0.0028
    EDDIAG:  cpu time    0.0497: real time    0.0500
  RMM-DIIS:  cpu time    0.2351: real time    0.2361
    ORTHCH:  cpu time    0.0020: real time    0.0020
       DOS:  cpu time    0.0002: real time    0.0002
    CHARGE:  cpu time    0.0226: real time    0.0227
    MIXING:  cpu time    0.0054: real time    0.0054
    --------------------------------------------
      LOOP:  cpu time    0.4744: real time    0.4769

 eigenvalue-minimisations  :    64
 total energy-change (2. order) : 0.3008618E+01  (-0.5644311E+00)
 number of electron       8.0000001 magnetization 
 augmentation part        0.2017272 magnetization 

 Broyden mixing:
  rms(total) = 0.43731E+00    rms(broyden)= 0.43724E+00
  rms(prec ) = 0.57051E+00
  weight for this iteration     100.00

 eigenvalues of (default mixing * dielectric matrix)
  average eigenvalue GAMMA=   1.3126
  1.3126

 Free energy of the ion-electron system (eV)
  ---------------------------------------------------
  alpha Z        PSCENC =         0.24684186
  Ewald energy   TEWEN  =       130.15064590
  -Hartree energ DENC   =      -264.45669463
  -exchange      EXHF   =         0.00000000
  -V(xc)+E(xc)   XCENC  =        23.28322263
  PAW double counting   =       241.72271146     -242.50792614
  entropy T*S    EENTRO =        -0.00000000
  eigenvalues    EBANDS =      -110.14854283
  atomic energy  EATOM  =       197.04175453
  Solvation  Ediel_sol  =         0.00000000
  ---------------------------------------------------
  free energy    TOTEN  =       -24.66798722 eV

  energy without entropy =      -24.66798722  energy(sigma->0) =      -24.66798722


--------------------------------------------------------------------------------------------------------




--------------------------------------- Iteration      1(   7)  ---------------------------------------


    POTLOK:  cpu time    0.1544: real time    0.1567
    SETDIJ:  cpu time    0.0025: real time    0.0026
    EDDIAG:  cpu time    0.0458: real time    0.0460
  RMM-DIIS:  cpu time    0.2332: real time    0.2373
    ORTHCH:  cpu time    0.0016: real time    0.0016
       DOS:  cpu time    0.0002: real time    0.0002
    CHARGE:  cpu time    0.0203: real time    0.0204
    MIXING:  cpu time    0.0057: real time    0.0057
    --------------------------------------------
      LOOP:  cpu time    0.4638: real time    0.4705

 eigenvalue-minimisations  :    64
 total energy-change (2. order) : 0.5141046E+00  (-0.1322598E+00)
 number of electron       8.0000001 magnetization 
 augmentation part        0.1907887 magnetization 

 Broyden mixing:
  rms(total) = 0.23137E+00    rms(broyden)= 0.23132E+00
  rms(prec ) = 0.27999E+00
  weight for this iteration     100.00

 eigenvalues of (default mixing * dielectric matrix)
  average eigenvalue GAMMA=   1.8453
  1.4702  2.2204

 Free energy of the ion-electron system (eV)
  ---------------------------------------------------
  alpha Z        PSCENC =         0.24684186
  Ewald energy   TEWEN  =       130.15064590
  -Hartree energ DENC   =      -276.52154869
  -exchange      EXHF   =         0.00000000
  -V(xc)+E(xc)   XCENC  =        24.16632110
  PAW double counting   =       374.42984512     -375.25757090
  entropy T*S    EENTRO =        -0.00000000
  eigenvalues    EBANDS =       -98.41017149
  atomic energy  EATOM  =       197.04175453
  Solvation  Ediel_sol  =         0.00000000
  ---------------------------------------------------
  free energy    TOTEN  =       -24.15388258 eV

  energy without entropy =      -24.15388258  energy(sigma->0) =      -24.15388258


--------------------------------------------------------------------------------------------------------




--------------------------------------- Iteration      1(   8)  ---------------------------------------


    POTLOK:  cpu time    0.1558: real time    0.1568
    SETDIJ:  cpu time    0.0025: real time    0.0025
    EDDIAG:  cpu time    0.0449: real time    0.0451
  RMM-DIIS:  cpu time    0.2304: real time    0.2322
    ORTHCH:  cpu time    0.0019: real time    0.0019
       DOS:  cpu time    0.0002: real time    0.0002
    CHARGE:  cpu time    0.0221: real time    0.0223
    MIXING:  cpu time    0.0059: real time    0.0059
    --------------------------------------------
      LOOP:  cpu time    0.4638: real time    0.4669

 eigenvalue-minimisations  :    64
 total energy-change (2. order) : 0.1479980E+00  (-0.1626148E-01)
 number of electron       8.0000001 magnetization 
 augmentation part        0.1893866 magnetization 

 Broyden mixing:
  rms(total) = 0.22474E-01    rms(broyden)= 0.22453E-01
  rms(prec ) = 0.53420E-01
  weight for this iteration     100.00

 eigenvalues of (default mixing * dielectric matrix)
  average eigenvalue GAMMA=   1.5546
  2.2480  0.9962  1.4196

 Free energy of the ion-electron system (eV)
  ---------------------------------------------------
  alpha Z        PSCENC =         0.24684186
  Ewald energy   TEWEN  =       130.15064590
  -Hartree energ DENC   =      -281.92087409
  -exchange      EXHF   =         0.00000000
  -V(xc)+E(xc)   XCENC  =        24.70257253
  PAW double counting   =       487.74400457     -488.53915290
  entropy T*S    EENTRO =        -0.00000000
  eigenvalues    EBANDS =       -93.43167701
  atomic energy  EATOM  =       197.04175453
  Solvation  Ediel_sol  =         0.00000000
  ---------------------------------------------------
  free energy    TOTEN  =       -24.00588461 eV

  energy without entropy =      -24.00588461  energy(sigma->0) =      -24.00588461


--------------------------------------------------------------------------------------------------------




--------------------------------------- Iteration      1(   9)  ---------------------------------------


    POTLOK:  cpu time    0.1546: real time    0.1553
    SETDIJ:  cpu time    0.0028: real time    0.0028
    EDDIAG:  cpu time    0.0433: real time    0.0435
  RMM-DIIS:  cpu time    0.2305: real time    0.2327
    ORTHCH:  cpu time    0.0018: real time    0.0018
       DOS:  cpu time    0.0002: real time    0.0002
    CHARGE:  cpu time    0.0207: real time    0.0208
    MIXING:  cpu time    0.0593: real time    0.0594
    --------------------------------------------
      LOOP:  cpu time    0.5132: real time    0.5165

 eigenvalue-minimisations  :    64
 total energy-change (2. order) : 0.5779053E-02  (-0.1136601E-02)
 number of electron       8.0000001 magnetization 
 augmentation part        0.1887989 magnetization 

 Broyden mixing:
  rms(total) = 0.19851E-01    rms(broyden)= 0.19847E-01
  rms(prec ) = 0.41083E-01
  weight for this iteration     100.00

 eigenvalues of (default mixing * dielectric matrix)
  average eigenvalue GAMMA=   2.1089
  3.1558  2.8911  1.0014  1.3873

 Free energy of the ion-electron system (eV)
  ---------------------------------------------------
  alpha Z        PSCENC =         0.24684186
  Ewald energy   TEWEN  =       130.15064590
  -Hartree energ DENC   =      -283.20486148
  -exchange      EXHF   =         0.00000000
  -V(xc)+E(xc)   XCENC  =        24.77435178
  PAW double counting   =       491.74639163     -492.54417148
  entropy T*S    EENTRO =        -0.00000000
  eigenvalues    EBANDS =       -92.21105829
  atomic energy  EATOM  =       197.04175453
  Solvation  Ediel_sol  =         0.00000000
  ---------------------------------------------------
  free energy    TOTEN  =       -24.00010556 eV

  energy without entropy =      -24.00010556  energy(sigma->0) =      -24.00010556


--------------------------------------------------------------------------------------------------------




--------------------------------------- Iteration      1(  10)  ---------------------------------------


    POTLOK:  cpu time    0.1493: real time    0.1503
    SETDIJ:  cpu time    0.0027: real time    0.0028
    EDDIAG:  cpu time    0.0445: real time    0.0446
  RMM-DIIS:  cpu time    0.1897: real time    0.1907
    ORTHCH:  cpu time    0.0018: real time    0.0027
       DOS:  cpu time    0.0002: real time    0.0002
    CHARGE:  cpu time    0.0208: real time    0.0210
    MIXING:  cpu time    0.0062: real time    0.0062
    --------------------------------------------
      LOOP:  cpu time    0.4153: real time    0.4186

 eigenvalue-minimisations  :    64
 total energy-change (2. order) : 0.5978355E-02  (-0.2440777E-02)
 number of electron       8.0000001 magnetization 
 augmentation part        0.1877439 magnetization 

 Broyden mixing:
  rms(total) = 0.28500E-01    rms(broyden)= 0.28498E-01
  rms(prec ) = 0.36173E-01
  weight for this iteration     100.00

 eigenvalues of (default mixing * dielectric matrix)
  average eigenvalue GAMMA=   1.7790
  3.0725  2.4559  1.1979  1.1979  0.9711

 Free energy of the ion-electron system (eV)
  ---------------------------------------------------
  alpha Z        PSCENC =         0.24684186
  Ewald energy   TEWEN  =       130.15064590
  -Hartree energ DENC   =      -285.41770572
  -exchange      EXHF   =         0.00000000
  -V(xc)+E(xc)   XCENC  =        24.84380746
  PAW double counting   =       474.98764150     -475.78909340
  entropy T*S    EENTRO =        -0.00000000
  eigenvalues    EBANDS =       -90.05801934
  atomic energy  EATOM  =       197.04175453
  Solvation  Ediel_sol  =         0.00000000
  ---------------------------------------------------
  free energy    TOTEN  =       -23.99412721 eV

  energy without entropy =      -23.99412721  energy(sigma->0) =      -23.99412721


--------------------------------------------------------------------------------------------------------




--------------------------------------- Iteration      1(  11)  ---------------------------------------


    POTLOK:  cpu time    0.1534: real time    0.1541
    SETDIJ:  cpu time    0.0027: real time    0.0027
    EDDIAG:  cpu time    0.0438: real time    0.0440
  RMM-DIIS:  cpu time    0.1788: real time    0.1795
    ORTHCH:  cpu time    0.0018: real time    0.0018
       DOS:  cpu time    0.0002: real time    0.0002
    CHARGE:  cpu time    0.0204: real time    0.0205
    MIXING:  cpu time    0.0062: real time    0.0063
    --------------------------------------------
      LOOP:  cpu time    0.4073: real time    0.4091

 eigenvalue-minimisations  :    64
 total energy-change (2. order) :-0.4307205E-03  (-0.6769685E-03)
 number of electron       8.0000001 magnetization 
 augmentation part        0.1880675 magnetization 

 Broyden mixing:
  rms(total) = 0.64712E-02    rms(broyden)= 0.64685E-02
  rms(prec ) = 0.12935E-01
  weight for this iteration     100.00

 eigenvalues of (default mixing * dielectric matrix)
  average eigenvalue GAMMA=   2.2790
  4.8022  3.1253  2.4327  1.3089  1.0025  1.0025

 Free energy of the ion-electron system (eV)
  ---------------------------------------------------
  alpha Z        PSCENC =         0.24684186
  Ewald energy   TEWEN  =       130.15064590
  -Hartree energ DENC   =      -285.31628901
  -exchange      EXHF   =         0.00000000
  -V(xc)+E(xc)   XCENC  =        24.85762419
  PAW double counting   =       484.25816457     -485.05249288
  entropy T*S    EENTRO =        -0.00000000
  eigenvalues    EBANDS =       -90.18080708
  atomic energy  EATOM  =       197.04175453
  Solvation  Ediel_sol  =         0.00000000
  ---------------------------------------------------
  free energy    TOTEN  =       -23.99455793 eV

  energy without entropy =      -23.99455793  energy(sigma->0) =      -23.99455793


--------------------------------------------------------------------------------------------------------




--------------------------------------- Iteration      1(  12)  ---------------------------------------


    POTLOK:  cpu time    0.1435: real time    0.1441
    SETDIJ:  cpu time    0.0029: real time    0.0029
    EDDIAG:  cpu time    0.0469: real time    0.0471
  RMM-DIIS:  cpu time    0.1798: real time    0.1818
    ORTHCH:  cpu time    0.0018: real time    0.0018
       DOS:  cpu time    0.0002: real time    0.0002
    CHARGE:  cpu time    0.0207: real time    0.0208
    MIXING:  cpu time    0.0065: real time    0.0065
    --------------------------------------------
      LOOP:  cpu time    0.4023: real time    0.4052

 eigenvalue-minimisations  :    64
 total energy-change (2. order) :-0.1007463E-01  (-0.4611908E-03)
 number of electron       8.0000001 magnetization 
 augmentation part        0.1883492 magnetization 

 Broyden mixing:
  rms(total) = 0.13342E-01    rms(broyden)= 0.13341E-01
  rms(prec ) = 0.17395E-01
  weight for this iteration     100.00

 eigenvalues of (default mixing * dielectric matrix)
  average eigenvalue GAMMA=   2.0195
  4.8101  2.9356  2.4401  1.2620  0.9914  0.9914  0.7058

 Free energy of the ion-electron system (eV)
  ---------------------------------------------------
  alpha Z        PSCENC =         0.24684186
  Ewald energy   TEWEN  =       130.15064590
  -Hartree energ DENC   =      -285.49029673
  -exchange      EXHF   =         0.00000000
  -V(xc)+E(xc)   XCENC  =        24.84968565
  PAW double counting   =       481.86927825     -482.66163023
  entropy T*S    EENTRO =        -0.00000000
  eigenvalues    EBANDS =       -90.01091178
  atomic energy  EATOM  =       197.04175453
  Solvation  Ediel_sol  =         0.00000000
  ---------------------------------------------------
  free energy    TOTEN  =       -24.00463255 eV

  energy without entropy =      -24.00463255  energy(sigma->0) =      -24.00463255


--------------------------------------------------------------------------------------------------------




--------------------------------------- Iteration      1(  13)  ---------------------------------------


    POTLOK:  cpu time    0.1399: real time    0.1406
    SETDIJ:  cpu time    0.0028: real time    0.0028
    EDDIAG:  cpu time    0.0452: real time    0.0454
  RMM-DIIS:  cpu time    0.1790: real time    0.1796
    ORTHCH:  cpu time    0.0019: real time    0.0019
       DOS:  cpu time    0.0002: real time    0.0002
    CHARGE:  cpu time    0.0202: real time    0.0203
    MIXING:  cpu time    0.0066: real time    0.0067
    --------------------------------------------
      LOOP:  cpu time    0.3958: real time    0.3975

 eigenvalue-minimisations  :    64
 total energy-change (2. order) :-0.3376248E-03  (-0.8089245E-04)
 number of electron       8.0000001 magnetization 
 augmentation part        0.1881351 magnetization 

 Broyden mixing:
  rms(total) = 0.64215E-02    rms(broyden)= 0.64214E-02
  rms(prec ) = 0.84198E-02
  weight for this iteration     100.00

 eigenvalues of (default mixing * dielectric matrix)
  average eigenvalue GAMMA=   2.3947
  6.0473  3.9446  2.5343  2.3096  1.2252  1.2252  0.9973  0.8742

 Free energy of the ion-electron system (eV)
  ---------------------------------------------------
  alpha Z        PSCENC =         0.24684186
  Ewald energy   TEWEN  =       130.15064590
  -Hartree energ DENC   =      -285.67790802
  -exchange      EXHF   =         0.00000000
  -V(xc)+E(xc)   XCENC  =        24.85548940
  PAW double counting   =       481.72300421     -482.51770631
  entropy T*S    EENTRO =        -0.00000000
  eigenvalues    EBANDS =       -89.82709175
  atomic energy  EATOM  =       197.04175453
  Solvation  Ediel_sol  =         0.00000000
  ---------------------------------------------------
  free energy    TOTEN  =       -24.00497018 eV

  energy without entropy =      -24.00497018  energy(sigma->0) =      -24.00497018


--------------------------------------------------------------------------------------------------------




--------------------------------------- Iteration      1(  14)  ---------------------------------------


    POTLOK:  cpu time    0.1360: real time    0.1394
    SETDIJ:  cpu time    0.0027: real time    0.0027
    EDDIAG:  cpu time    0.0440: real time    0.0441
  RMM-DIIS:  cpu time    0.1726: real time    0.1755
    ORTHCH:  cpu time    0.0017: real time    0.0017
       DOS:  cpu time    0.0002: real time    0.0002
    CHARGE:  cpu time    0.0203: real time    0.0204
    MIXING:  cpu time    0.0070: real time    0.0070
    --------------------------------------------
      LOOP:  cpu time    0.3844: real time    0.3909

 eigenvalue-minimisations  :    64
 total energy-change (2. order) :-0.2823212E-02  (-0.2157197E-03)
 number of electron       8.0000001 magnetization 
 augmentation part        0.1879080 magnetization 

 Broyden mixing:
  rms(total) = 0.46036E-02    rms(broyden)= 0.46018E-02
  rms(prec ) = 0.60171E-02
  weight for this iteration     100.00

 eigenvalues of (default mixing * dielectric matrix)
  average eigenvalue GAMMA=   2.3234
  6.4833  4.1543  2.4469  2.4469  1.2007  1.2007  0.9448  0.9833  1.0495

 Free energy of the ion-electron system (eV)
  ---------------------------------------------------
  alpha Z        PSCENC =         0.24684186
  Ewald energy   TEWEN  =       130.15064590
  -Hartree energ DENC   =      -285.74405195
  -exchange      EXHF   =         0.00000000
  -V(xc)+E(xc)   XCENC  =        24.84795717
  PAW double counting   =       480.68460709     -481.48162684
  entropy T*S    EENTRO =        -0.00000000
  eigenvalues    EBANDS =       -89.75392115
  atomic energy  EATOM  =       197.04175453
  Solvation  Ediel_sol  =         0.00000000
  ---------------------------------------------------
  free energy    TOTEN  =       -24.00779339 eV

  energy without entropy =      -24.00779339  energy(sigma->0) =      -24.00779339


--------------------------------------------------------------------------------------------------------




--------------------------------------- Iteration      1(  15)  ---------------------------------------


    POTLOK:  cpu time    0.1402: real time    0.1411
    SETDIJ:  cpu time    0.0031: real time    0.0031
    EDDIAG:  cpu time    0.0453: real time    0.0455
  RMM-DIIS:  cpu time    0.1808: real time    0.1815
    ORTHCH:  cpu time    0.0017: real time    0.0017
       DOS:  cpu time    0.0002: real time    0.0002
    CHARGE:  cpu time    0.0206: real time    0.0207
    MIXING:  cpu time    0.0071: real time    0.0071
    --------------------------------------------
      LOOP:  cpu time    0.3989: real time    0.4010

 eigenvalue-minimisations  :    64
 total energy-change (2. order) :-0.2087065E-03  (-0.1612122E-04)
 number of electron       8.0000001 magnetization 
 augmentation part        0.1879254 magnetization 

 Broyden mixing:
  rms(total) = 0.15635E-02    rms(broyden)= 0.15634E-02
  rms(prec ) = 0.20119E-02
  weight for this iteration     100.00

 eigenvalues of (default mixing * dielectric matrix)
  average eigenvalue GAMMA=   2.5546
  7.5048  4.9228  3.0649  2.5280  2.0497  1.2967  1.2967  0.9957  0.9957  0.8915

 Free energy of the ion-electron system (eV)
  ---------------------------------------------------
  alpha Z        PSCENC =         0.24684186
  Ewald energy   TEWEN  =       130.15064590
  -Hartree energ DENC   =      -285.65438576
  -exchange      EXHF   =         0.00000000
  -V(xc)+E(xc)   XCENC  =        24.84403743
  PAW double counting   =       480.80115184     -481.59692024
  entropy T*S    EENTRO =        -0.00000000
  eigenvalues    EBANDS =       -89.84112765
  atomic energy  EATOM  =       197.04175453
  Solvation  Ediel_sol  =         0.00000000
  ---------------------------------------------------
  free energy    TOTEN  =       -24.00800210 eV

  energy without entropy =      -24.00800210  energy(sigma->0) =      -24.00800210


--------------------------------------------------------------------------------------------------------




--------------------------------------- Iteration      1(  16)  ---------------------------------------


    POTLOK:  cpu time    0.1434: real time    0.1440
    SETDIJ:  cpu time    0.0028: real time    0.0028
    EDDIAG:  cpu time    0.0446: real time    0.0448
  RMM-DIIS:  cpu time    0.1774: real time    0.1782
    ORTHCH:  cpu time    0.0020: real time    0.0020
       DOS:  cpu time    0.0002: real time    0.0002
    CHARGE:  cpu time    0.0198: real time    0.0199
    MIXING:  cpu time    0.0070: real time    0.0071
    --------------------------------------------
      LOOP:  cpu time    0.3973: real time    0.3990

 eigenvalue-minimisations  :    64
 total energy-change (2. order) :-0.2121641E-03  (-0.1601865E-04)
 number of electron       8.0000001 magnetization 
 augmentation part        0.1880035 magnetization 

 Broyden mixing:
  rms(total) = 0.13910E-02    rms(broyden)= 0.13905E-02
  rms(prec ) = 0.18652E-02
  weight for this iteration     100.00

 eigenvalues of (default mixing * dielectric matrix)
  average eigenvalue GAMMA=   2.4602
  7.6295  4.7764  3.4454  2.3765  2.2941  1.2689  1.2689  0.9174  0.9581  1.0636
  1.0636

 Free energy of the ion-electron system (eV)
  ---------------------------------------------------
  alpha Z        PSCENC =         0.24684186
  Ewald energy   TEWEN  =       130.15064590
  -Hartree energ DENC   =      -285.63345673
  -exchange      EXHF   =         0.00000000
  -V(xc)+E(xc)   XCENC  =        24.84413795
  PAW double counting   =       480.93498140     -481.73009274
  entropy T*S    EENTRO =        -0.00000000
  eigenvalues    EBANDS =       -89.86302644
  atomic energy  EATOM  =       197.04175453
  Solvation  Ediel_sol  =         0.00000000
  ---------------------------------------------------
  free energy    TOTEN  =       -24.00821426 eV

  energy without entropy =      -24.00821426  energy(sigma->0) =      -24.00821426


--------------------------------------------------------------------------------------------------------




--------------------------------------- Iteration      1(  17)  ---------------------------------------


    POTLOK:  cpu time    0.1428: real time    0.1435
    SETDIJ:  cpu time    0.0028: real time    0.0028
    EDDIAG:  cpu time    0.0442: real time    0.0444
  RMM-DIIS:  cpu time    0.1813: real time    0.1824
    ORTHCH:  cpu time    0.0028: real time    0.0028
       DOS:  cpu time    0.0002: real time    0.0002
    CHARGE:  cpu time    0.0207: real time    0.0208
    MIXING:  cpu time    0.0074: real time    0.0075
    --------------------------------------------
      LOOP:  cpu time    0.4022: real time    0.4043

 eigenvalue-minimisations  :    64
 total energy-change (2. order) :-0.1607984E-04  (-0.3350305E-05)
 number of electron       8.0000001 magnetization 
 augmentation part        0.1879653 magnetization 

 Broyden mixing:
  rms(total) = 0.22159E-03    rms(broyden)= 0.22155E-03
  rms(prec ) = 0.28194E-03
  weight for this iteration     100.00

 eigenvalues of (default mixing * dielectric matrix)
  average eigenvalue GAMMA=   2.5702
  8.3256  5.1300  3.9638  2.5917  2.4951  1.8763  1.3235  1.3235  1.0115  0.9637
  0.9637  0.8741

 Free energy of the ion-electron system (eV)
  ---------------------------------------------------
  alpha Z        PSCENC =         0.24684186
  Ewald energy   TEWEN  =       130.15064590
  -Hartree energ DENC   =      -285.68152735
  -exchange      EXHF   =         0.00000000
  -V(xc)+E(xc)   XCENC  =        24.84645533
  PAW double counting   =       480.95231075     -481.74786538
  entropy T*S    EENTRO =        -0.00000000
  eigenvalues    EBANDS =       -89.81684598
  atomic energy  EATOM  =       197.04175453
  Solvation  Ediel_sol  =         0.00000000
  ---------------------------------------------------
  free energy    TOTEN  =       -24.00823034 eV

  energy without entropy =      -24.00823034  energy(sigma->0) =      -24.00823034


--------------------------------------------------------------------------------------------------------




--------------------------------------- Iteration      1(  18)  ---------------------------------------


    POTLOK:  cpu time    0.1453: real time    0.1460
    SETDIJ:  cpu time    0.0027: real time    0.0027
    EDDIAG:  cpu time    0.0444: real time    0.0446
  RMM-DIIS:  cpu time    0.1418: real time    0.1440
    ORTHCH:  cpu time    0.0019: real time    0.0019
       DOS:  cpu time    0.0003: real time    0.0003
    CHARGE:  cpu time    0.0198: real time    0.0198
    MIXING:  cpu time    0.0078: real time    0.0078
    --------------------------------------------
      LOOP:  cpu time    0.3640: real time    0.3671

 eigenvalue-minimisations  :    48
 total energy-change (2. order) :-0.1763611E-04  (-0.1894598E-06)
 number of electron       8.0000001 magnetization 
 augmentation part        0.1879599 magnetization 

 Broyden mixing:
  rms(total) = 0.67950E-04    rms(broyden)= 0.67836E-04
  rms(prec ) = 0.10297E-03
  weight for this iteration     100.00

 eigenvalues of (default mixing * dielectric matrix)
  average eigenvalue GAMMA=   2.5397
  8.3479  5.3232  3.7349  2.9939  2.4798  2.1376  1.3186  1.3186  1.4241  0.8852
  1.0857  0.9831  0.9831

 Free energy of the ion-electron system (eV)
  ---------------------------------------------------
  alpha Z        PSCENC =         0.24684186
  Ewald energy   TEWEN  =       130.15064590
  -Hartree energ DENC   =      -285.67681119
  -exchange      EXHF   =         0.00000000
  -V(xc)+E(xc)   XCENC  =        24.84599371
  PAW double counting   =       480.84232717     -481.63790248
  entropy T*S    EENTRO =        -0.00000000
  eigenvalues    EBANDS =       -89.82109748
  atomic energy  EATOM  =       197.04175453
  Solvation  Ediel_sol  =         0.00000000
  ---------------------------------------------------
  free energy    TOTEN  =       -24.00824798 eV

  energy without entropy =      -24.00824798  energy(sigma->0) =      -24.00824798


--------------------------------------------------------------------------------------------------------




--------------------------------------- Iteration      1(  19)  ---------------------------------------


    POTLOK:  cpu time    0.1463: real time    0.1469
    SETDIJ:  cpu time    0.0024: real time    0.0024
    EDDIAG:  cpu time    0.0437: real time    0.0439
  RMM-DIIS:  cpu time    0.1454: real time    0.1459
    ORTHCH:  cpu time    0.0027: real time    0.0027
       DOS:  cpu time    0.0002: real time    0.0002
    CHARGE:  cpu time    0.0207: real time    0.0208
    MIXING:  cpu time    0.0080: real time    0.0080
    --------------------------------------------
      LOOP:  cpu time    0.3693: real time    0.3708

 eigenvalue-minimisations  :    48
 total energy-change (2. order) :-0.2411771E-05  (-0.5503474E-07)
 number of electron       8.0000001 magnetization 
 augmentation part        0.1879580 magnetization 

 Broyden mixing:
  rms(total) = 0.89178E-04    rms(broyden)= 0.89151E-04
  rms(prec ) = 0.12119E-03
  weight for this iteration     100.00

 eigenvalues of (default mixing * dielectric matrix)
  average eigenvalue GAMMA=   2.5133
  8.3948  5.4541  3.9443  3.0171  2.5829  2.4275  1.9101  1.3203  1.3203  1.0211
  0.9919  0.9919  0.8967  0.9130

 Free energy of the ion-electron system (eV)
  ---------------------------------------------------
  alpha Z        PSCENC =         0.24684186
  Ewald energy   TEWEN  =       130.15064590
  -Hartree energ DENC   =      -285.67486264
  -exchange      EXHF   =         0.00000000
  -V(xc)+E(xc)   XCENC  =        24.84581891
  PAW double counting   =       480.83317561     -481.62875282
  entropy T*S    EENTRO =        -0.00000000
  eigenvalues    EBANDS =       -89.82287173
  atomic energy  EATOM  =       197.04175453
  Solvation  Ediel_sol  =         0.00000000
  ---------------------------------------------------
  free energy    TOTEN  =       -24.00825039 eV

  energy without entropy =      -24.00825039  energy(sigma->0) =      -24.00825039


--------------------------------------------------------------------------------------------------------




--------------------------------------- Iteration      1(  20)  ---------------------------------------


    POTLOK:  cpu time    0.1484: real time    0.1494
    SETDIJ:  cpu time    0.0027: real time    0.0027
    EDDIAG:  cpu time    0.0432: real time    0.0433
  RMM-DIIS:  cpu time    0.1510: real time    0.1517
    ORTHCH:  cpu time    0.0017: real time    0.0017
       DOS:  cpu time    0.0005: real time    0.0005
    CHARGE:  cpu time    0.0199: real time    0.0200
    MIXING:  cpu time    0.0080: real time    0.0080
    --------------------------------------------
      LOOP:  cpu time    0.3755: real time    0.3774

 eigenvalue-minimisations  :    48
 total energy-change (2. order) :-0.1645099E-05  (-0.1148518E-07)
 number of electron       8.0000001 magnetization 
 augmentation part        0.1879586 magnetization 

 Broyden mixing:
  rms(total) = 0.38948E-04    rms(broyden)= 0.38939E-04
  rms(prec ) = 0.47344E-04
  weight for this iteration     100.00

 eigenvalues of (default mixing * dielectric matrix)
  average eigenvalue GAMMA=   2.4726
  8.4212  5.5291  3.9521  3.7513  2.4453  2.4453  1.9460  1.3253  1.3253  0.8814
  1.0401  0.9715  0.9715  1.0419  1.0419

 Free energy of the ion-electron system (eV)
  ---------------------------------------------------
  alpha Z        PSCENC =         0.24684186
  Ewald energy   TEWEN  =       130.15064590
  -Hartree energ DENC   =      -285.67184926
  -exchange      EXHF   =         0.00000000
  -V(xc)+E(xc)   XCENC  =        24.84565287
  PAW double counting   =       480.83646013     -481.63200092
  entropy T*S    EENTRO =        -0.00000000
  eigenvalues    EBANDS =       -89.82575715
  atomic energy  EATOM  =       197.04175453
  Solvation  Ediel_sol  =         0.00000000
  ---------------------------------------------------
  free energy    TOTEN  =       -24.00825203 eV

  energy without entropy =      -24.00825203  energy(sigma->0) =      -24.00825203


--------------------------------------------------------------------------------------------------------




--------------------------------------- Iteration      1(  21)  ---------------------------------------


    POTLOK:  cpu time    0.1550: real time    0.1557
    SETDIJ:  cpu time    0.0027: real time    0.0027
    EDDIAG:  cpu time    0.0426: real time    0.0428
  RMM-DIIS:  cpu time    0.1268: real time    0.1273
    ORTHCH:  cpu time    0.0024: real time    0.0024
       DOS:  cpu time    0.0002: real time    0.0002
    --------------------------------------------
      LOOP:  cpu time    0.3296: real time    0.3309

 eigenvalue-minimisations  :    32
 total energy-change (2. order) :-0.3227564E-06  ( 0.0000000E+00)
 number of electron       8.0000001 magnetization 
 augmentation part        0.1879586 magnetization 

 Free energy of the ion-electron system (eV)
  ---------------------------------------------------
  alpha Z        PSCENC =         0.24684186
  Ewald energy   TEWEN  =       130.15064590
  -Hartree energ DENC   =      -285.67154748
  -exchange      EXHF   =         0.00000000
  -V(xc)+E(xc)   XCENC  =        24.84564885
  PAW double counting   =       480.84050618     -481.63604187
  entropy T*S    EENTRO =        -0.00000000
  eigenvalues    EBANDS =       -89.82606032
  atomic energy  EATOM  =       197.04175453
  Solvation  Ediel_sol  =         0.00000000
  ---------------------------------------------------
  free energy    TOTEN  =       -24.00825236 eV

  energy without entropy =      -24.00825236  energy(sigma->0) =      -24.00825236


--------------------------------------------------------------------------------------------------------




 average (electrostatic) potential at core
  the test charge radii are     0.5201  0.6991
  (the norm of the test charge is              1.0000)
       1 -41.3750       2 -41.5529       3 -41.6878       4 -41.5988       5 -57.9025
 
 
 
 E-fermi :  -8.2601     XC(G=0):  -0.7092     alpha+bet : -0.2147


 k-point     1 :       0.2500    0.2500    0.2500
  band No.  band energies     occupation 
      1     -16.9539      2.00000
      2      -9.4121      2.00000
      3      -9.3176      2.00000
      4      -9.2292      2.00000
      5      -0.2970      0.00000
      6       0.5742      0.00000
      7       0.6716      0.00000
      8       0.6993      0.00000

 k-point     2 :      -0.2500    0.2500    0.2500
  band No.  band energies     occupation 
      1     -16.9540      2.00000
      2      -9.4122      2.00000
      3      -9.3176      2.00000
      4      -9.2292      2.00000
      5      -0.3049      0.00000
      6       0.5814      0.00000
      7       0.6901      0.00000
      8       0.7226      0.00000

 k-point     3 :       0.2500   -0.2500    0.2500
  band No.  band energies     occupation 
      1     -16.9540      2.00000
      2      -9.4122      2.00000
      3      -9.3177      2.00000
      4      -9.2292      2.00000
      5      -0.3027      0.00000
      6       0.5783      0.00000
      7       0.6829      0.00000
      8       0.7188      0.00000

 k-point     4 :      -0.2500   -0.2500    0.2500
  band No.  band energies     occupation 
      1     -16.9540      2.00000
      2      -9.4122      2.00000
      3      -9.3177      2.00000
      4      -9.2293      2.00000
      5      -0.2992      0.00000
      6       0.5788      0.00000
      7       0.6775      0.00000
      8       0.7031      0.00000


--------------------------------------------------------------------------------------------------------


 soft charge-density along one line, spin component           1
         0         1         2         3         4         5         6         7         8         9
 total charge-density along one line
 
 pseudopotential strength for first ion, spin component:           1
 -2.340  -4.032  -0.001  -0.001   0.001
 -4.032  -6.860  -0.003  -0.004   0.002
 -0.001  -0.003  -0.338   0.002  -0.001
 -0.001  -0.004   0.002  -0.337  -0.001
  0.001   0.002  -0.001  -0.001  -0.339
 total augmentation occupancy for first ion, spin component:           1
  3.495  -0.630   0.224   0.318  -0.142
 -0.630   0.127  -0.042  -0.059   0.026
  0.224  -0.042   0.021   0.017  -0.008
  0.318  -0.059   0.017   0.033  -0.011
 -0.142   0.026  -0.008  -0.011   0.013


------------------------ aborting loop because EDIFF is reached ----------------------------------------


    CHARGE:  cpu time    0.0214: real time    0.0215
    FORLOC:  cpu time    0.0168: real time    0.0168
    FORNL :  cpu time    0.0222: real time    0.0222
    STRESS:  cpu time    0.1803: real time    0.1807
    FORCOR:  cpu time    0.1509: real time    0.1519
    FORHAR:  cpu time    0.0501: real time    0.0507
    MIXING:  cpu time    0.0076: real time    0.0076
    OFIELD:  cpu time    0.0000: real time    0.0000

  FORCE on cell =-STRESS in cart. coord.  units (eV):
  Direction    XX          YY          ZZ          XY          YZ          ZX
  --------------------------------------------------------------------------------------
  Alpha Z     0.24684     0.24684     0.24684
  Ewald      43.58186    44.64978    41.91897    -1.18934    -1.33213    -0.14218
  Hartree    95.38931    95.80836    94.47354    -0.89342    -0.04236    -0.33453
  E(xc)     -27.32345   -27.32390   -27.32200    -0.00903    -0.00137    -0.00317
  Local    -197.59644  -198.81344  -195.31943     2.14606     0.90501     0.60952
  n-local   -16.13689   -16.17208   -16.09203    -0.04698     0.03966    -0.02353
  augment     0.11112     0.10802     0.11418    -0.00177     0.00452    -0.00163
  Kinetic   101.84283   101.88647   101.73143     0.46997     0.06511     0.15320
  Fock        0.00000     0.00000     0.00000     0.00000     0.00000     0.00000
  -------------------------------------------------------------------------------------
  Total       0.11517     0.39006    -0.24851     0.47548    -0.36154     0.25769
  in kB       0.18802     0.63679    -0.40570     0.77625    -0.59024     0.42068
  external pressure =        0.14 kB  Pullay stress =        0.00 kB

  kinetic pressure (ideal gas correction) =      0.00 kB
  total pressure  =      0.14 kB
  Total+kin.     0.188       0.637      -0.406       0.776      -0.590       0.421

 VOLUME and BASIS-vectors are now :
 -----------------------------------------------------------------------------
  energy-cutoff  :      400.00
  volume of cell :      981.40
      direct lattice vectors                 reciprocal lattice vectors
     9.926491484  0.000000000  0.000000000     0.100740529  0.002982643  0.001210455
    -0.292646349  9.884301654  0.000000000     0.000000000  0.101170526 -0.000191672
    -0.120745721  0.018950021 10.002409530     0.000000000  0.000000000  0.099975911

  length of vectors
     9.926491484  9.888632922 10.003156254     0.100791942  0.101170708  0.099975911


 FORCES acting on ions
    electron-ion (+dipol)            ewald-force                    non-local-force                 convergence-correction
 -----------------------------------------------------------------------------------------------
   -.179E+02 0.285E+02 0.402E+02   0.195E+02 -.312E+02 -.440E+02   -.182E+01 0.287E+01 0.406E+01   -.295E-04 0.453E-04 0.579E-04
   0.529E+02 -.619E+01 0.396E+01   -.588E+02 0.680E+01 -.442E+01   0.557E+01 -.684E+00 0.421E+00   0.764E-04 -.112E-04 0.563E-05
   -.232E+02 -.489E+02 0.156E+01   0.262E+02 0.551E+02 -.173E+01   -.251E+01 -.533E+01 0.188E+00   -.336E-04 -.739E-04 0.354E-05
   -.123E+02 0.248E+02 -.460E+02   0.137E+02 -.276E+02 0.513E+02   -.131E+01 0.264E+01 -.489E+01   -.186E-04 0.372E-04 -.603E-04
   0.477E+00 0.259E+01 0.802E+00   -.534E+00 -.310E+01 -.110E+01   0.364E-01 -.224E+00 -.385E+00   -.120E-05 -.146E-05 -.324E-06
 -----------------------------------------------------------------------------------------------
   0.376E-01 0.731E+00 0.600E+00   0.533E-14 0.355E-14 0.000E+00   -.378E-01 -.731E+00 -.600E+00   -.652E-05 -.422E-05 0.643E-05
 
 
 POSITION                                       TOTAL-FORCE (eV/Angst)
 -----------------------------------------------------------------------------------
      5.18284      4.02611      3.60847        -0.199861      0.181244      0.287610
      3.72733      4.75570      4.37933        -0.326181     -0.077924     -0.037568
      5.26225      5.59469      4.42906         0.460898      0.829733      0.020395
      5.05243      4.12844      5.38836         0.085432     -0.205329      0.413878
      4.80412      4.62797      4.46065        -0.020524     -0.727872     -0.684504
 -----------------------------------------------------------------------------------
    total drift:                               -0.000236     -0.000149     -0.000190


--------------------------------------------------------------------------------------------------------



  FREE ENERGIE OF THE ION-ELECTRON SYSTEM (eV)
  ---------------------------------------------------
  free  energy   TOTEN  =       -24.00825236 eV

  energy  without entropy=      -24.00825236  energy(sigma->0) =      -24.00825236
 


--------------------------------------------------------------------------------------------------------


    POTLOK:  cpu time    0.1567: real time    0.1573


--------------------------------------------------------------------------------------------------------


           RANDOM_SEED =         172325915                0                0
           RANDOM_SEED =         172325915               30                0
   IONSTEP:  cpu time    0.0033: real time    0.0033

  ENERGY OF THE ELECTRON-ION-THERMOSTAT SYSTEM (eV)
  ---------------------------------------------------
% ion-electron   TOTEN  =       -24.008252  see above
  kinetic energy EKIN   =         0.000441
  kin. lattice  EKIN_LAT=         0.000000  (temperature    0.85 K)
  nose potential ES     =         0.000000
  nose kinetic   EPS    =         0.000000
  ---------------------------------------------------
  total energy   ETOTAL =       -24.007812 eV

  maximum distance moved by ions :      0.23E-03

    WAVPRE:  cpu time    0.0474: real time    0.0478
    FEWALD:  cpu time    0.0009: real time    0.0009
    ORTHCH:  cpu time    0.0096: real time    0.0096
     LOOP+:  cpu time    8.5173: real time    8.5740


--------------------------------------- Iteration      2(   1)  ---------------------------------------


    POTLOK:  cpu time    0.1557: real time    0.1564
    SETDIJ:  cpu time    0.0024: real time    0.0024
     EDDAV:  cpu time    0.2144: real time    0.2153
       DOS:  cpu time    0.0004: real time    0.0004
    CHARGE:  cpu time    0.0192: real time    0.0192
    MIXING:  cpu time    0.0078: real time    0.0078
    --------------------------------------------
      LOOP:  cpu time    0.4000: real time    0.4016

 eigenvalue-minimisations  :    88
 total energy-change (2. order) :-0.3407239E-02  (-0.3970660E-03)
 number of electron       8.0000001 magnetization 
 augmentation part        0.1876372 magnetization 

 Broyden mixing:
  rms(total) = 0.31590E-02    rms(broyden)= 0.31570E-02
  rms(prec ) = 0.39666E-02
  weight for this iteration     100.00

 Free energy of the ion-electron system (eV)
  ---------------------------------------------------
  alpha Z        PSCENC =         0.24684186
  Ewald energy   TEWEN  =       129.95272071
  -Hartree energ DENC   =      -285.56076530
  -exchange      EXHF   =         0.00000000
  -V(xc)+E(xc)   XCENC  =        24.84001966
  PAW double counting   =       480.84757988     -481.64310370
  entropy T*S    EENTRO =        -0.00000000
  eigenvalues    EBANDS =       -89.73670691
  atomic energy  EATOM  =       197.04175453
  Solvation  Ediel_sol  =         0.00000000
  ---------------------------------------------------
  free energy    TOTEN  =       -24.01165927 eV

  energy without entropy =      -24.01165927  energy(sigma->0) =      -24.01165927


--------------------------------------------------------------------------------------------------------




--------------------------------------- Iteration      2(   2)  ---------------------------------------


    POTLOK:  cpu time    0.1542: real time    0.1549
    SETDIJ:  cpu time    0.0027: real time    0.0027
    EDDIAG:  cpu time    0.0429: real time    0.0431
  RMM-DIIS:  cpu time    0.1787: real time    0.1797
    ORTHCH:  cpu time    0.0017: real time    0.0017
       DOS:  cpu time    0.0002: real time    0.0002
    CHARGE:  cpu time    0.0225: real time    0.0226
    MIXING:  cpu time    0.0063: real time    0.0063
    --------------------------------------------
      LOOP:  cpu time    0.4091: real time    0.4111

 eigenvalue-minimisations  :    64
 total energy-change (2. order) : 0.1773150E-04  (-0.1061146E-04)
 number of electron       8.0000001 magnetization 
 augmentation part        0.1876818 magnetization 

 Broyden mixing:
  rms(total) = 0.17072E-02    rms(broyden)= 0.17070E-02
  rms(prec ) = 0.20212E-02
  weight for this iteration     100.00

 eigenvalues of (default mixing * dielectric matrix)
  average eigenvalue GAMMA=   1.7663
  1.7663

 Free energy of the ion-electron system (eV)
  ---------------------------------------------------
  alpha Z        PSCENC =         0.24684186
  Ewald energy   TEWEN  =       129.95272071
  -Hartree energ DENC   =      -285.51912963
  -exchange      EXHF   =         0.00000000
  -V(xc)+E(xc)   XCENC  =        24.83775524
  PAW double counting   =       480.33395349     -481.12897189
  entropy T*S    EENTRO =        -0.00000000
  eigenvalues    EBANDS =       -89.77656585
  atomic energy  EATOM  =       197.04175453
  Solvation  Ediel_sol  =         0.00000000
  ---------------------------------------------------
  free energy    TOTEN  =       -24.01164154 eV

  energy without entropy =      -24.01164154  energy(sigma->0) =      -24.01164154


--------------------------------------------------------------------------------------------------------




--------------------------------------- Iteration      2(   3)  ---------------------------------------


    POTLOK:  cpu time    0.1476: real time    0.1483
    SETDIJ:  cpu time    0.0027: real time    0.0027
    EDDIAG:  cpu time    0.0443: real time    0.0445
  RMM-DIIS:  cpu time    0.1798: real time    0.1806
    ORTHCH:  cpu time    0.0020: real time    0.0020
       DOS:  cpu time    0.0002: real time    0.0002
    CHARGE:  cpu time    0.0203: real time    0.0204
    MIXING:  cpu time    0.0057: real time    0.0057
    --------------------------------------------
      LOOP:  cpu time    0.4025: real time    0.4043

 eigenvalue-minimisations  :    64
 total energy-change (2. order) : 0.1984256E-05  (-0.3335223E-05)
 number of electron       8.0000001 magnetization 
 augmentation part        0.1877229 magnetization 

 Broyden mixing:
  rms(total) = 0.62763E-03    rms(broyden)= 0.62736E-03
  rms(prec ) = 0.73171E-03
  weight for this iteration     100.00

 eigenvalues of (default mixing * dielectric matrix)
  average eigenvalue GAMMA=   1.6329
  1.6329  1.6329

 Free energy of the ion-electron system (eV)
  ---------------------------------------------------
  alpha Z        PSCENC =         0.24684186
  Ewald energy   TEWEN  =       129.95272071
  -Hartree energ DENC   =      -285.49516337
  -exchange      EXHF   =         0.00000000
  -V(xc)+E(xc)   XCENC  =        24.83639143
  PAW double counting   =       479.83637609     -480.63107322
  entropy T*S    EENTRO =        -0.00000000
  eigenvalues    EBANDS =       -89.79948758
  atomic energy  EATOM  =       197.04175453
  Solvation  Ediel_sol  =         0.00000000
  ---------------------------------------------------
  free energy    TOTEN  =       -24.01163956 eV

  energy without entropy =      -24.01163956  energy(sigma->0) =      -24.01163956


--------------------------------------------------------------------------------------------------------




--------------------------------------- Iteration      2(   4)  ---------------------------------------


    POTLOK:  cpu time    0.1497: real time    0.1503
    SETDIJ:  cpu time    0.0031: real time    0.0031
    EDDIAG:  cpu time    0.0427: real time    0.0428
  RMM-DIIS:  cpu time    0.1436: real time    0.1463
    ORTHCH:  cpu time    0.0017: real time    0.0017
       DOS:  cpu time    0.0002: real time    0.0002
    --------------------------------------------
      LOOP:  cpu time    0.3410: real time    0.3445

 eigenvalue-minimisations  :    48
 total energy-change (2. order) : 0.7871637E-07  (-0.1364458E-06)
 number of electron       8.0000001 magnetization 
 augmentation part        0.1877229 magnetization 

 Free energy of the ion-electron system (eV)
  ---------------------------------------------------
  alpha Z        PSCENC =         0.24684186
  Ewald energy   TEWEN  =       129.95272071
  -Hartree energ DENC   =      -285.50374083
  -exchange      EXHF   =         0.00000000
  -V(xc)+E(xc)   XCENC  =        24.83673277
  PAW double counting   =       479.70488578     -480.49969260
  entropy T*S    EENTRO =        -0.00000000
  eigenvalues    EBANDS =       -89.79114169
  atomic energy  EATOM  =       197.04175453
  Solvation  Ediel_sol  =         0.00000000
  ---------------------------------------------------
  free energy    TOTEN  =       -24.01163948 eV

  energy without entropy =      -24.01163948  energy(sigma->0) =      -24.01163948


--------------------------------------------------------------------------------------------------------




 average (electrostatic) potential at core
  the test charge radii are     0.5201  0.6991
  (the norm of the test charge is              1.0000)
       1 -41.3840       2 -41.5474       3 -41.6675       4 -41.5897       5 -57.9068
 
 
 
 E-fermi :  -8.2483     XC(G=0):  -0.6851     alpha+bet : -0.2147


 k-point     1 :       0.2500    0.2500    0.2500
  band No.  band energies     occupation 
      1     -16.9469      2.00000
      2      -9.4039      2.00000
      3      -9.3130      2.00000
      4      -9.2316      2.00000
      5      -0.2899      0.00000
      6       0.5952      0.00000
      7       0.6865      0.00000
      8       0.7159      0.00000

 k-point     2 :      -0.2500    0.2500    0.2500
  band No.  band energies     occupation 
      1     -16.9469      2.00000
      2      -9.4039      2.00000
      3      -9.3131      2.00000
      4      -9.2316      2.00000
      5      -0.2976      0.00000
      6       0.6036      0.00000
      7       0.7031      0.00000
      8       0.7393      0.00000

 k-point     3 :       0.2500   -0.2500    0.2500
  band No.  band energies     occupation 
      1     -16.9469      2.00000
      2      -9.4039      2.00000
      3      -9.3131      2.00000
      4      -9.2316      2.00000
      5      -0.2954      0.00000
      6       0.5999      0.00000
      7       0.6971      0.00000
      8       0.7350      0.00000

 k-point     4 :      -0.2500   -0.2500    0.2500
  band No.  band energies     occupation 
      1     -16.9469      2.00000
      2      -9.4039      2.00000
      3      -9.3131      2.00000
      4      -9.2317      2.00000
      5      -0.2920      0.00000
      6       0.5992      0.00000
      7       0.6935      0.00000
      8       0.7188      0.00000


--------------------------------------------------------------------------------------------------------


 soft charge-density along one line, spin component           1
         0         1         2         3         4         5         6         7         8         9
 total charge-density along one line
 
 pseudopotential strength for first ion, spin component:           1
 -2.340  -4.032  -0.001  -0.001   0.001
 -4.032  -6.861  -0.003  -0.004   0.002
 -0.001  -0.003  -0.338   0.002  -0.001
 -0.001  -0.004   0.002  -0.337  -0.001
  0.001   0.002  -0.001  -0.001  -0.339
 total augmentation occupancy for first ion, spin component:           1
  3.500  -0.631   0.225   0.319  -0.142
 -0.631   0.127  -0.042  -0.059   0.026
  0.225  -0.042   0.021   0.017  -0.008
  0.319  -0.059   0.017   0.033  -0.011
 -0.142   0.026  -0.008  -0.011   0.013


------------------------ aborting loop because EDIFF is reached ----------------------------------------


    CHARGE:  cpu time    0.0200: real time    0.0201
    FORLOC:  cpu time    0.0165: real time    0.0165
    FORNL :  cpu time    0.0226: real time    0.0228
    STRESS:  cpu time    0.1760: real time    0.1768
    FORCOR:  cpu time    0.1511: real time    0.1516
    FORHAR:  cpu time    0.0530: real time    0.0532
    MIXING:  cpu time    0.0072: real time    0.0072
    OFIELD:  cpu time    0.0000: real time    0.0000

  FORCE on cell =-STRESS in cart. coord.  units (eV):
  Direction    XX          YY          ZZ          XY          YZ          ZX
  --------------------------------------------------------------------------------------
  Alpha Z     0.24684     0.24684     0.24684
  Ewald      43.51646    44.53462    41.90161    -1.21441    -1.26648    -0.16362
  Hartree    95.33450    95.76229    94.40745    -0.87602    -0.04998    -0.32623
  E(xc)     -27.31380   -27.31409   -27.31254    -0.00867    -0.00153    -0.00301
  Local    -197.48828  -198.69155  -195.22270     2.13075     0.87752     0.60862
  n-local   -16.11573   -16.14791   -16.07455    -0.04324     0.03589    -0.02149
  augment     0.11151     0.10876     0.11428    -0.00147     0.00418    -0.00147
  Kinetic   101.78223   101.81869   101.68157     0.45174     0.07346     0.14514
  Fock        0.00000     0.00000     0.00000     0.00000     0.00000     0.00000
  -------------------------------------------------------------------------------------
  Total       0.07374     0.31764    -0.25803     0.43868    -0.32694     0.23796
  in kB       0.12038     0.51856    -0.42125     0.71616    -0.53374     0.38847
  external pressure =        0.07 kB  Pullay stress =        0.00 kB

  kinetic pressure (ideal gas correction) =      0.00 kB
  total pressure  =      0.07 kB
  Total+kin.     0.122       0.522      -0.420       0.718      -0.534       0.388

 VOLUME and BASIS-vectors are now :
 -----------------------------------------------------------------------------
  energy-cutoff  :      400.00
[...]
 -----------------------------------------------------------------------------------------------
   -.406E-01 -.616E+00 -.465E+00   0.358E-14 -.711E-14 -.711E-14   0.408E-01 0.616E+00 0.465E+00   -.353E-04 -.372E-04 0.570E-04
 
 
 POSITION                                       TOTAL-FORCE (eV/Angst)
 -----------------------------------------------------------------------------------
      5.17111      4.03456      3.62283         0.095624     -0.195848     -0.262971
      3.70998      4.74916      4.37741         0.226778     -0.054020      0.030016
      5.28657      5.63556      4.43175        -0.279678     -0.616825      0.050124
      5.05617      4.11859      5.41007        -0.091427      0.180918     -0.288227
      4.80421      4.62522      4.45758         0.048789      0.685774      0.471373
 -----------------------------------------------------------------------------------
    total drift:                                0.000085     -0.000003      0.000314


--------------------------------------------------------------------------------------------------------



  FREE ENERGIE OF THE ION-ELECTRON SYSTEM (eV)
  ---------------------------------------------------
  free  energy   TOTEN  =       -24.01683297 eV

  energy  without entropy=      -24.01683297  energy(sigma->0) =      -24.01683297
 
 d Force =-0.5416699E-02[-0.625E-02,-0.458E-02]  d Energy =-0.5419712E-02 0.301E-05
 d Force = 0.4684591E+00[ 0.466E+00, 0.471E+00]  d Ewald  = 0.4684553E+00 0.378E-05


--------------------------------------------------------------------------------------------------------


    POTLOK:  cpu time    0.1536: real time    0.1541


--------------------------------------------------------------------------------------------------------


           RANDOM_SEED =         172325915               30                0
   IONSTEP:  cpu time    0.0001: real time    0.0001

  ENERGY OF THE ELECTRON-ION-THERMOSTAT SYSTEM (eV)
  ---------------------------------------------------
% ion-electron   TOTEN  =       -24.016833  see above
  kinetic energy EKIN   =         0.008874
  kin. lattice  EKIN_LAT=         0.000000  (temperature   17.16 K)
  nose potential ES     =         0.000000
  nose kinetic   EPS    =         0.000000
  ---------------------------------------------------
  total energy   ETOTAL =       -24.007959 eV

  maximum distance moved by ions :      0.42E-03

    WAVPRE:  cpu time    0.0534: real time    0.0539
    FEWALD:  cpu time    0.0008: real time    0.0008
    ORTHCH:  cpu time    0.0095: real time    0.0095
 Prediction of Wavefunctions ALPHA= 2.159 BETA=-1.192
     LOOP+:  cpu time    3.2773: real time    3.2927


--------------------------------------- Iteration     10(   1)  ---------------------------------------


    POTLOK:  cpu time    0.1439: real time    0.1454
    SETDIJ:  cpu time    0.0029: real time    0.0029
     EDDAV:  cpu time    0.1965: real time    0.1975
       DOS:  cpu time    0.0002: real time    0.0002
    CHARGE:  cpu time    0.0198: real time    0.0199
    MIXING:  cpu time    0.0077: real time    0.0077
    --------------------------------------------
      LOOP:  cpu time    0.3710: real time    0.3737

 eigenvalue-minimisations  :    80
 total energy-change (2. order) : 0.4699715E-02  (-0.3732385E-04)
 number of electron       8.0000005 magnetization 
 augmentation part        0.1827927 magnetization 

 Broyden mixing:
  rms(total) = 0.13635E-03    rms(broyden)= 0.13598E-03
  rms(prec ) = 0.15482E-03
  weight for this iteration     100.00

 Free energy of the ion-electron system (eV)
  ---------------------------------------------------
  alpha Z        PSCENC =         0.24684186
  Ewald energy   TEWEN  =       125.80622289
  -Hartree energ DENC   =      -281.85830744
  -exchange      EXHF   =         0.00000000
  -V(xc)+E(xc)   XCENC  =        24.64405908
  PAW double counting   =       454.76187583     -455.54212646
  entropy T*S    EENTRO =        -0.00000000
  eigenvalues    EBANDS =       -89.11245309
  atomic energy  EATOM  =       197.04175453
  Solvation  Ediel_sol  =         0.00000000
  ---------------------------------------------------
  free energy    TOTEN  =       -24.01213280 eV

  energy without entropy =      -24.01213280  energy(sigma->0) =      -24.01213280


--------------------------------------------------------------------------------------------------------




--------------------------------------- Iteration     10(   2)  ---------------------------------------


    POTLOK:  cpu time    0.1503: real time    0.1512
    SETDIJ:  cpu time    0.0020: real time    0.0021
    EDDIAG:  cpu time    0.0433: real time    0.0435
  RMM-DIIS:  cpu time    0.1765: real time    0.1789
    ORTHCH:  cpu time    0.0017: real time    0.0017
       DOS:  cpu time    0.0002: real time    0.0002
    CHARGE:  cpu time    0.0205: real time    0.0206
    MIXING:  cpu time    0.0063: real time    0.0063
    --------------------------------------------
      LOOP:  cpu time    0.4008: real time    0.4045

 eigenvalue-minimisations  :    60
 total energy-change (2. order) :-0.7682515E-06  (-0.4405346E-06)
 number of electron       8.0000005 magnetization 
 augmentation part        0.1827904 magnetization 

 Broyden mixing:
  rms(total) = 0.12940E-03    rms(broyden)= 0.12929E-03
  rms(prec ) = 0.14689E-03
  weight for this iteration     100.00

 eigenvalues of (default mixing * dielectric matrix)
  average eigenvalue GAMMA=   0.5388
  0.5388

 Free energy of the ion-electron system (eV)
  ---------------------------------------------------
  alpha Z        PSCENC =         0.24684186
  Ewald energy   TEWEN  =       125.80622289
  -Hartree energ DENC   =      -281.85946622
  -exchange      EXHF   =         0.00000000
  -V(xc)+E(xc)   XCENC  =        24.64411350
  PAW double counting   =       454.73395405     -455.51420897
  entropy T*S    EENTRO =        -0.00000000
  eigenvalues    EBANDS =       -89.11134521
  atomic energy  EATOM  =       197.04175453
  Solvation  Ediel_sol  =         0.00000000
  ---------------------------------------------------
  free energy    TOTEN  =       -24.01213357 eV

  energy without entropy =      -24.01213357  energy(sigma->0) =      -24.01213357


--------------------------------------------------------------------------------------------------------




--------------------------------------- Iteration     10(   3)  ---------------------------------------


    POTLOK:  cpu time    0.1455: real time    0.1461
    SETDIJ:  cpu time    0.0025: real time    0.0025
    EDDIAG:  cpu time    0.0433: real time    0.0435
  RMM-DIIS:  cpu time    0.1409: real time    0.1425
    ORTHCH:  cpu time    0.0019: real time    0.0019
       DOS:  cpu time    0.0002: real time    0.0002
    CHARGE:  cpu time    0.0195: real time    0.0195
    MIXING:  cpu time    0.0057: real time    0.0057
    --------------------------------------------
      LOOP:  cpu time    0.3594: real time    0.3619

 eigenvalue-minimisations  :    46
 total energy-change (2. order) :-0.1138000E-06  (-0.1230641E-07)
 number of electron       8.0000005 magnetization 
 augmentation part        0.1827903 magnetization 

 Broyden mixing:
  rms(total) = 0.10943E-03    rms(broyden)= 0.10942E-03
  rms(prec ) = 0.12592E-03
  weight for this iteration     100.00

 eigenvalues of (default mixing * dielectric matrix)
  average eigenvalue GAMMA=   1.6261
  1.2983  1.9539

 Free energy of the ion-electron system (eV)
  ---------------------------------------------------
  alpha Z        PSCENC =         0.24684186
  Ewald energy   TEWEN  =       125.80622289
  -Hartree energ DENC   =      -281.85913069
  -exchange      EXHF   =         0.00000000
  -V(xc)+E(xc)   XCENC  =        24.64410153
  PAW double counting   =       454.72007853     -455.50032875
  entropy T*S    EENTRO =        -0.00000000
  eigenvalues    EBANDS =       -89.11167360
  atomic energy  EATOM  =       197.04175453
  Solvation  Ediel_sol  =         0.00000000
  ---------------------------------------------------
  free energy    TOTEN  =       -24.01213369 eV

  energy without entropy =      -24.01213369  energy(sigma->0) =      -24.01213369


--------------------------------------------------------------------------------------------------------




--------------------------------------- Iteration     10(   4)  ---------------------------------------


    POTLOK:  cpu time    0.1466: real time    0.1472
    SETDIJ:  cpu time    0.0023: real time    0.0023
    EDDIAG:  cpu time    0.0419: real time    0.0421
  RMM-DIIS:  cpu time    0.1403: real time    0.1408
    ORTHCH:  cpu time    0.0026: real time    0.0027
       DOS:  cpu time    0.0002: real time    0.0002
    --------------------------------------------
      LOOP:  cpu time    0.3337: real time    0.3351

 eigenvalue-minimisations  :    48
 total energy-change (2. order) :-0.4947118E-06  (-0.1176823E-07)
 number of electron       8.0000005 magnetization 
 augmentation part        0.1827903 magnetization 

 Free energy of the ion-electron system (eV)
  ---------------------------------------------------
  alpha Z        PSCENC =         0.24684186
  Ewald energy   TEWEN  =       125.80622289
  -Hartree energ DENC   =      -281.85752202
  -exchange      EXHF   =         0.00000000
  -V(xc)+E(xc)   XCENC  =        24.64404675
  PAW double counting   =       454.67458051     -455.45480907
  entropy T*S    EENTRO =        -0.00000000
  eigenvalues    EBANDS =       -89.11324963
  atomic energy  EATOM  =       197.04175453
  Solvation  Ediel_sol  =         0.00000000
  ---------------------------------------------------
  free energy    TOTEN  =       -24.01213418 eV

  energy without entropy =      -24.01213418  energy(sigma->0) =      -24.01213418


--------------------------------------------------------------------------------------------------------




 average (electrostatic) potential at core
  the test charge radii are     0.5201  0.6991
  (the norm of the test charge is              1.0000)
       1 -41.6022       2 -41.4367       3 -41.2999       4 -41.4065       5 -58.0156
 
 
 
 E-fermi :  -8.1874     XC(G=0):  -0.7036     alpha+bet : -0.2147


 k-point     1 :       0.2500    0.2500    0.2500
  band No.  band energies     occupation 
      1     -16.8123      2.00000
      2      -9.3273      2.00000
      3      -9.2496      2.00000
      4      -9.1672      2.00000
      5      -0.3187      0.00000
      6       0.5701      0.00000
      7       0.6733      0.00000
      8       0.7017      0.00000

 k-point     2 :      -0.2500    0.2500    0.2500
  band No.  band energies     occupation 
      1     -16.8124      2.00000
      2      -9.3273      2.00000
      3      -9.2496      2.00000
      4      -9.1673      2.00000
      5      -0.3276      0.00000
      6       0.5932      0.00000
      7       0.6818      0.00000
      8       0.7247      0.00000

 k-point     3 :       0.2500   -0.2500    0.2500
  band No.  band energies     occupation 
      1     -16.8124      2.00000
      2      -9.3273      2.00000
      3      -9.2497      2.00000
      4      -9.1673      2.00000
      5      -0.3241      0.00000
      6       0.5775      0.00000
      7       0.6808      0.00000
      8       0.7202      0.00000

 k-point     4 :      -0.2500   -0.2500    0.2500
  band No.  band energies     occupation 
      1     -16.8124      2.00000
      2      -9.3274      2.00000
      3      -9.2497      2.00000
      4      -9.1673      2.00000
      5      -0.3204      0.00000
      6       0.5732      0.00000
      7       0.6808      0.00000
      8       0.7024      0.00000


--------------------------------------------------------------------------------------------------------


 soft charge-density along one line, spin component           1
         0         1         2         3         4         5         6         7         8         9
 total charge-density along one line
 
 pseudopotential strength for first ion, spin component:           1
 -2.342  -4.036  -0.001  -0.001   0.001
 -4.036  -6.869  -0.003  -0.004   0.002
 -0.001  -0.003  -0.337   0.002  -0.001
 -0.001  -0.004   0.002  -0.335  -0.001
  0.001   0.002  -0.001  -0.001  -0.338
 total augmentation occupancy for first ion, spin component:           1
  3.592  -0.645   0.243   0.343  -0.150
 -0.645   0.131  -0.045  -0.063   0.028
  0.243  -0.045   0.023   0.019  -0.008
  0.343  -0.063   0.019   0.037  -0.012
 -0.150   0.028  -0.008  -0.012   0.015


------------------------ aborting loop because EDIFF is reached ----------------------------------------


    CHARGE:  cpu time    0.0202: real time    0.0203
    FORLOC:  cpu time    0.0163: real time    0.0163
    FORNL :  cpu time    0.0222: real time    0.0226
    STRESS:  cpu time    0.1760: real time    0.1766
    FORCOR:  cpu time    0.1505: real time    0.1510
    FORHAR:  cpu time    0.0497: real time    0.0498
    MIXING:  cpu time    0.0054: real time    0.0054
    OFIELD:  cpu time    0.0001: real time    0.0001

  FORCE on cell =-STRESS in cart. coord.  units (eV):
  Direction    XX          YY          ZZ          XY          YZ          ZX
  --------------------------------------------------------------------------------------
  Alpha Z     0.24684     0.24684     0.24684
  Ewald      42.10869    42.08793    41.60957    -1.33676     0.34990    -0.52222
  Hartree    94.15786    94.69417    93.00684    -0.41614    -0.16112    -0.11176
  E(xc)     -27.10491   -27.10369   -27.10698     0.00027    -0.00360     0.00113
  Local    -195.17261  -195.91632  -193.22363     1.40813     0.07345     0.45724
  n-local   -15.67218   -15.64536   -15.70873     0.03539    -0.04206     0.02324
  augment     0.12083     0.12284     0.11752     0.00321    -0.00288     0.00184
  Kinetic   100.49607   100.43709   100.59738    -0.01824     0.18781    -0.06362
  Fock        0.00000     0.00000     0.00000     0.00000     0.00000     0.00000
  -------------------------------------------------------------------------------------
  Total      -0.81942    -1.07650    -0.46120    -0.32413     0.40149    -0.21415
  in kB      -1.33773    -1.75743    -0.75293    -0.52915     0.65544    -0.34960
  external pressure =       -1.28 kB  Pullay stress =        0.00 kB

  kinetic pressure (ideal gas correction) =      0.01 kB
  total pressure  =     -1.28 kB
  Total+kin.    -1.330      -1.749      -0.748      -0.522       0.657      -0.349

 VOLUME and BASIS-vectors are now :
 -----------------------------------------------------------------------------
  energy-cutoff  :      400.00
  volume of cell :      981.40
      direct lattice vectors                 reciprocal lattice vectors
     9.926491484  0.000000000  0.000000000     0.100740529  0.002982643  0.001210455
    -0.292646349  9.884301654  0.000000000     0.000000000  0.101170526 -0.000191672
    -0.120745721  0.018950021 10.002409530     0.000000000  0.000000000  0.099975911

  length of vectors
     9.926491484  9.888632922 10.003156254     0.100791942  0.101170708  0.099975911


 FORCES acting on ions
    electron-ion (+dipol)            ewald-force                    non-local-force                 convergence-correction
 -----------------------------------------------------------------------------------------------
   -.179E+02 0.290E+02 0.409E+02   0.199E+02 -.323E+02 -.456E+02   -.192E+01 0.309E+01 0.437E+01   0.404E-04 -.117E-03 -.128E-03
   0.518E+02 -.576E+01 0.377E+01   -.569E+02 0.632E+01 -.413E+01   0.533E+01 -.602E+00 0.390E+00   -.161E-03 -.155E-04 -.109E-04
   -.222E+02 -.464E+02 0.111E+01   0.241E+02 0.503E+02 -.118E+01   -.221E+01 -.462E+01 0.116E+00   0.692E-04 0.135E-03 -.300E-05
   -.118E+02 0.238E+02 -.448E+02   0.129E+02 -.260E+02 0.490E+02   -.121E+01 0.243E+01 -.457E+01   0.232E-04 -.995E-04 0.135E-03
   0.830E-01 -.129E+01 -.151E+01   -.858E-01 0.166E+01 0.183E+01   0.449E-01 0.411E+00 0.242E+00   -.939E-04 -.150E-03 0.346E-04
 -----------------------------------------------------------------------------------------------
   -.400E-01 -.712E+00 -.552E+00   -.529E-14 0.711E-14 0.000E+00   0.403E-01 0.712E+00 0.552E+00   -.122E-03 -.247E-03 0.284E-04
 
 
 POSITION                                       TOTAL-FORCE (eV/Angst)
 -----------------------------------------------------------------------------------
      5.16959      4.03484      3.62375         0.123160     -0.223641     -0.303973
      3.70831      4.74762      4.37726         0.275259     -0.045014      0.036190
      5.28906      5.63875      4.43257        -0.336224     -0.716536      0.046387
      5.05625      4.11800      5.41211        -0.104037      0.208874     -0.346829
      4.80426      4.62511      4.45728         0.041946      0.776364      0.568513
 -----------------------------------------------------------------------------------
    total drift:                                0.000104      0.000046      0.000288


--------------------------------------------------------------------------------------------------------



  FREE ENERGIE OF THE ION-ELECTRON SYSTEM (eV)
  ---------------------------------------------------
  free  energy   TOTEN  =       -24.01213418 eV

  energy  without entropy=      -24.01213418  energy(sigma->0) =      -24.01213418
 
 d Force =-0.4697054E-02[-0.511E-02,-0.429E-02]  d Energy =-0.4698788E-02 0.173E-05
 d Force = 0.3412554E+00[ 0.340E+00, 0.342E+00]  d Ewald  = 0.3412542E+00 0.113E-05


--------------------------------------------------------------------------------------------------------


    POTLOK:  cpu time    0.1539: real time    0.1544


--------------------------------------------------------------------------------------------------------


           RANDOM_SEED =         172325915               30                0
   IONSTEP:  cpu time    0.0001: real time    0.0001

  ENERGY OF THE ELECTRON-ION-THERMOSTAT SYSTEM (eV)
  ---------------------------------------------------
% ion-electron   TOTEN  =       -24.012134  see above
  kinetic energy EKIN   =         0.004268
  kin. lattice  EKIN_LAT=         0.000000  (temperature    8.26 K)
  nose potential ES     =         0.000000
  nose kinetic   EPS    =         0.000000
  ---------------------------------------------------
  total energy   ETOTAL =       -24.007866 eV

  maximum distance moved by ions :      0.25E-03


 mean value of Nose-termostat <S>:     1.000 mean value of <T> :    22.006
 mean temperature <T/S>/<1/S>  :    22.006

    WAVPRE:  cpu time    0.0572: real time    0.0576
    FEWALD:  cpu time    0.0010: real time    0.0010
    ORTHCH:  cpu time    0.0094: real time    0.0095
 Prediction of Wavefunctions ALPHA= 2.090 BETA=-1.115
    POTLOK:  cpu time    0.1455: real time    0.1463
    EDDIAG:  cpu time    0.0441: real time    0.0446
     LOOP+:  cpu time    2.3218: real time    2.3364
    4ORBIT:  cpu time    0.0000: real time    0.0000

 total amount of memory used by VASP MPI-rank0    56484. kBytes
=======================================================================

   base      :      30000. kBytes
   nonl-proj :       2652. kBytes
   fftplans  :       8574. kBytes
   grid      :      13527. kBytes
   one-center:          6. kBytes
   wavefun   :       1725. kBytes
 
  
  
 General timing and accounting informations for this job:
 ========================================================
  
                  Total CPU time used (sec):       31.932
                            User time (sec):       28.875
                          System time (sec):        3.057
                         Elapsed time (sec):       32.373
  
                   Maximum memory used (kb):      179604.
                   Average memory used (kb):           0.
  
                          Minor page faults:       264571
                          Major page faults:            0
                 Voluntary context switches:           63
