 vasp.5.4.4.18Apr17-6-g9f103f2a35 (build Jul 09 2021 13:05:15) complex          
  
 executed on             LinuxIFC date 2021.11.04  19:03:00
 running on   16 total cores
 distrk:  each k-point on   16 cores,    1 groups
 distr:  one band on NCORES_PER_BAND=   4 cores,    4 groups


--------------------------------------------------------------------------------------------------------


 INCAR:
 POTCAR:    PAW_PBE H 15Jun2001                   
 POTCAR:    PAW_PBE C 08Apr2002                   
 POTCAR:    PAW_PBE H 15Jun2001                   
   VRHFIN =H: ultrasoft test                                                    
   LEXCH  = PE                                                                  
   EATOM  =    12.4884 eV,    0.9179 Ry                                         
                                                                                
   TITEL  = PAW_PBE H 15Jun2001                                                 
   LULTRA =        F    use ultrasoft PP ?                                      
   IUNSCR =        0    unscreen: 0-lin 1-nonlin 2-no                           
   RPACOR =    0.000    partial core radius                                     
   POMASS =    1.000; ZVAL   =    1.000    mass and valenz                      
   RCORE  =    1.100    outmost cutoff radius                                   
   RWIGS  =    0.700; RWIGS  =    0.370    wigner-seitz radius (au A)           
   ENMAX  =  250.000; ENMIN  =  200.000 eV                                      
   RCLOC  =    0.701    cutoff for local pot                                    
   LCOR   =        T    correct aug charges                                     
   LPAW   =        T    paw PP                                                  
   EAUG   =  400.000                                                            
   RMAX   =    1.123    core radius for proj-oper                               
   RAUG   =    1.200    factor for augmentation sphere                          
   RDEP   =    1.112    radius for radial grids                                 
   RDEPT  =    0.926    core radius for aug-charge                              
                                                                                
   Atomic configuration                                                         
    2 entries                                                                   
     n  l   j            E        occ.                                          
     1  0  0.50        -6.4927   1.0000                                         
     2  1  0.50        -3.4015   0.0000                                         
   Description                                                                  
     l       E           TYP  RCUT    TYP  RCUT                                 
     0     -6.4927494     23  1.100                                             
     0      6.8029130     23  1.100                                             
     1     -4.0817478     23  1.100                                             
  local pseudopotential read in
  atomic valenz-charges read in
  non local Contribution for L=           0  read in
    real space projection operators read in
  non local Contribution for L=           0  read in
    real space projection operators read in
  non local Contribution for L=           1  read in
    real space projection operators read in
    PAW grid and wavefunctions read in
 
   number of l-projection  operators is LMAX  =           3
   number of lm-projection operators is LMMAX =           5
 
 POTCAR:    PAW_PBE C 08Apr2002                   
   VRHFIN =C: s2p2                                                              
   LEXCH  = PE                                                                  
   EATOM  =   147.1560 eV,   10.8157 Ry                                         
                                                                                
   TITEL  = PAW_PBE C 08Apr2002                                                 
   LULTRA =        F    use ultrasoft PP ?                                      
   IUNSCR =        1    unscreen: 0-lin 1-nonlin 2-no                           
   RPACOR =    1.200    partial core radius                                     
   POMASS =   12.011; ZVAL   =    4.000    mass and valenz                      
   RCORE  =    1.500    outmost cutoff radius                                   
   RWIGS  =    1.630; RWIGS  =    0.863    wigner-seitz radius (au A)           
   ENMAX  =  400.000; ENMIN  =  300.000 eV                                      
   ICORE  =        2    local potential                                         
   LCOR   =        T    correct aug charges                                     
   LPAW   =        T    paw PP                                                  
   EAUG   =  644.873                                                            
   DEXC   =    0.000                                                            
   RMAX   =    1.529    core radius for proj-oper                               
   RAUG   =    1.300    factor for augmentation sphere                          
   RDEP   =    1.501    radius for radial grids                                 
   RDEPT  =    1.300    core radius for aug-charge                              
                                                                                
   Atomic configuration                                                         
    4 entries                                                                   
     n  l   j            E        occ.                                          
     1  0  0.50      -273.3789   2.0000                                         
     2  0  0.50       -13.7508   2.0000                                         
     2  1  0.50        -5.2854   2.0000                                         
     3  2  1.50        -5.4423   0.0000                                         
   Description                                                                  
     l       E           TYP  RCUT    TYP  RCUT                                 
     0    -13.7508458     23  1.200                                             
     0     -8.2022199     23  1.200                                             
     1     -5.2854383     23  1.500                                             
     1     34.0145650     23  1.500                                             
     2     -5.4423304      7  1.500                                             
  local pseudopotential read in
  partial core-charges read in
  partial kinetic energy density read in
  atomic valenz-charges read in
  non local Contribution for L=           0  read in
    real space projection operators read in
  non local Contribution for L=           0  read in
    real space projection operators read in
  non local Contribution for L=           1  read in
    real space projection operators read in
  non local Contribution for L=           1  read in
    real space projection operators read in
    PAW grid and wavefunctions read in
 
   number of l-projection  operators is LMAX  =           4
   number of lm-projection operators is LMMAX =           8
 
  PAW_PBE H 15Jun2001                   :
 energy of atom  1       EATOM=  -12.4884
 kinetic energy error for atom=    0.0098 (will be added to EATOM!!)
  PAW_PBE C 08Apr2002                   :
 energy of atom  2       EATOM= -147.1560
 kinetic energy error for atom=    0.0288 (will be added to EATOM!!)
 
 
 POSCAR:  H  C                                   
  positions in cartesian coordinates
  No initial velocities read in
 exchange correlation table for  LEXCH =        8
   RHO(1)=    0.500       N(1)  =     2000
   RHO(2)=  100.500       N(2)  =     4000
 


--------------------------------------------------------------------------------------------------------


 ion  position               nearest neighbor table
   1  0.538  0.406  0.360-   5 1.09
   2  0.394  0.480  0.438-   5 1.09
   3  0.552  0.565  0.443-   5 1.10
   4  0.529  0.416  0.539-   5 1.08
   5  0.504  0.467  0.445-   4 1.08   1 1.09   2 1.09   3 1.10
 

IMPORTANT INFORMATION: All symmetrisations will be switched off!
NOSYMM: (Re-)initialisation of all symmetry stuff for point group C_1.

 
 

Automatic generation of k-mesh.
 generate k-points for:    2    2    2
Space group operators:
 irot       det(A)        alpha          n_x          n_y          n_z        tau_x        tau_y        tau_z
    1     1.000000     0.000000     1.000000     0.000000     0.000000     0.000000     0.000000     0.000000
 
 Subroutine IBZKPT returns following result:
 ===========================================
 
 Found      4 irreducible k-points:
 
 Following reciprocal coordinates:
            Coordinates               Weight
  0.250000  0.250000  0.250000      2.000000
 -0.250000  0.250000  0.250000      2.000000
  0.250000 -0.250000  0.250000      2.000000
 -0.250000 -0.250000  0.250000      2.000000
 
 Following cartesian coordinates:
            Coordinates               Weight
  0.025324  0.024676  0.026711      2.000000
 -0.025324  0.024631  0.025170      2.000000
  0.025324 -0.024631  0.025814      2.000000
 -0.025324 -0.024676  0.024273      2.000000
 


--------------------------------------------------------------------------------------------------------




 Dimension of arrays:
   k-points           NKPTS =      4   k-points in BZ     NKDIM =      4   number of bands    NBANDS=      8
   number of dos      NEDOS =    301   number of ions     NIONS =      5
   non local maximal  LDIM  =      4   non local SUM 2l+1 LMDIM =      8
   total plane-waves  NPLWV = 286720
   max r-space proj   IRMAX =      1   max aug-charges    IRDMAX=   3645
   dimension x,y,z NGX =    64 NGY =   70 NGZ =   64
   dimension x,y,z NGXF=   128 NGYF=  140 NGZF=  128
   support grid    NGXF=   128 NGYF=  140 NGZF=  128
   ions per type =               4   1
   NGX,Y,Z   is equivalent  to a cutoff of  10.78, 11.48, 10.84 a.u.
   NGXF,Y,Z  is equivalent  to a cutoff of  21.56, 22.95, 21.68 a.u.

 SYSTEM =  unknown system                          
 POSCAR =   H  C                                   

 Startparameter for this run:
   NWRITE =      2    write-flag & timer
   PREC   = a         normal or accurate (medium, high low for compatibility)
   ISTART =      0    job   : 0-new  1-cont  2-samecut
   ICHARG =      2    charge: 1-file 2-atom 10-const
   ISPIN  =      1    spin polarized calculation?
   LNONCOLLINEAR =      F non collinear calculations
   LSORBIT =      F    spin-orbit coupling
   INIWAV =      1    electr: 0-lowe 1-rand  2-diag
   LASPH  =      F    aspherical Exc in radial PAW
   METAGGA=      F    non-selfconsistent MetaGGA calc.

 Electronic Relaxation 1
   ENCUT  =  400.0 eV  29.40 Ry    5.42 a.u.  16.10 16.54 16.00*2*pi/ulx,y,z
   ENINI  =  400.0     initial cutoff
   ENAUG  =  644.9 eV  augmentation charge cutoff
   NELM   =    120;   NELMIN=  4; NELMDL= -5     # of ELM steps 
   EDIFF  = 0.1E-05   stopping-criterion for ELM
   LREAL  =      F    real-space projection
   NLSPLINE    = F    spline interpolate recip. space projectors
   LCOMPAT=      F    compatible to vasp.4.4
   GGA_COMPAT  = T    GGA compatible to vasp.4.4-vasp.4.6
   LMAXPAW     = -100 max onsite density
   LMAXMIX     =    2 max onsite mixed and CHGCAR
   VOSKOWN=      0    Vosko Wilk Nusair interpolation
   ROPT   =    0.00000   0.00000
 Ionic relaxation
   EDIFFG = 0.1E-04   stopping-criterion for IOM
   NSW    =     10    number of steps for IOM
   NBLOCK =      1;   KBLOCK =     10    inner block; outer block 
   IBRION =      0    ionic relax: 0-MD 1-quasi-New 2-CG
   NFREE  =      0    steps in history (QN), initial steepest desc. (CG)
   ISIF   =      2    stress and relaxation
   IWAVPR =     12    prediction:  0-non 1-charg 2-wave 3-comb
   ISYM   =      0    0-nonsym 1-usesym 2-fastsym
   LCORR  =      T    Harris-Foulkes like correction to forces

   POTIM  = 0.5000    time-step for ionic-motion
   TEIN   =    0.0    initial temperature
   TEBEG  =    0.0;   TEEND  =   0.0 temperature during run
   SMASS  =  -3.00    Nose mass-parameter (am)
   estimated Nose-frequenzy (Omega)   =  0.10E-29 period in steps =****** mass=  -0.223E-26a.u.
   SCALEE = 1.0000    scale energy and forces
   NPACO  =    256;   APACO  = 16.0  distance and # of slots for P.C.
   PSTRESS=    0.0 pullay stress

  Mass of Ions in am
   POMASS =   1.00 12.01
  Ionic Valenz
   ZVAL   =   1.00  4.00
  Atomic Wigner-Seitz radii
   RWIGS  =  -1.00 -1.00
  virtual crystal weights 
   VCA    =   1.00  1.00
   NELECT =       8.0000    total number of electrons
   NUPDOWN=      -1.0000    fix difference up-down

 DOS related values:
   EMIN   =  10.00;   EMAX   =-10.00  energy-range for DOS
   EFERMI =   0.00
   ISMEAR =     0;   SIGMA  =   0.20  broadening in eV -4-tet -1-fermi 0-gaus

 Electronic relaxation 2 (details)
   IALGO  =     68    algorithm
   LDIAG  =      T    sub-space diagonalisation (order eigenvalues)
   LSUBROT=      F    optimize rotation matrix (better conditioning)
   TURBO    =      0    0=normal 1=particle mesh
   IRESTART =      0    0=no restart 2=restart with 2 vectors
   NREBOOT  =      0    no. of reboots
   NMIN     =      0    reboot dimension
   EREF     =   0.00    reference energy to select bands
   IMIX   =      4    mixing-type and parameters
     AMIX     =   0.40;   BMIX     =  1.00
     AMIX_MAG =   1.60;   BMIX_MAG =  1.00
     AMIN     =   0.10
     WC   =   100.;   INIMIX=   1;  MIXPRE=   1;  MAXMIX= -45

 Intra band minimization:
   WEIMIN = 0.0010     energy-eigenvalue tresh-hold
   EBREAK =  0.31E-07  absolut break condition
   DEPER  =   0.30     relativ break condition  

   TIME   =   0.40     timestep for ELM

  volume/ion in A,a.u.               =     196.36      1325.08
  Fermi-wavevector in a.u.,A,eV,Ry     =   0.329433  0.622537  1.476584  0.108526
  Thomas-Fermi vector in A             =   1.223875
 
 Write flags
   LWAVE        =      F    write WAVECAR
   LDOWNSAMPLE  =      F    k-point downsampling of WAVECAR
   LCHARG       =      F    write CHGCAR
   LVTOT        =      F    write LOCPOT, total local potential
   LVHAR        =      F    write LOCPOT, Hartree potential only
   LELF         =      F    write electronic localiz. function (ELF)
   LORBIT       =      0    0 simple, 1 ext, 2 COOP (PROOUT), +10 PAW based schemes


 Dipole corrections
   LMONO  =      F    monopole corrections only (constant potential shift)
   LDIPOL =      F    correct potential (dipole corrections)
   IDIPOL =      0    1-x, 2-y, 3-z, 4-all directions 
   EPSILON=  1.0000000 bulk dielectric constant

 Exchange correlation treatment:
   GGA     =    --    GGA type
   LEXCH   =     8    internal setting for exchange type
   VOSKOWN=      0    Vosko Wilk Nusair interpolation
   LHFCALC =     F    Hartree Fock is set to
   LHFONE  =     F    Hartree Fock one center treatment
   AEXX    =    0.0000 exact exchange contribution

 Linear response parameters
   LEPSILON=     F    determine dielectric tensor
   LRPA    =     F    only Hartree local field effects (RPA)
   LNABLA  =     F    use nabla operator in PAW spheres
   LVEL    =     F    velocity operator in full k-point grid
   LINTERFAST=   F  fast interpolation
   KINTER  =     0    interpolate to denser k-point grid
   CSHIFT  =0.1000    complex shift for real part using Kramers Kronig
   OMEGAMAX=  -1.0    maximum frequency
   DEG_THRESHOLD= 0.2000000E-02 threshold for treating states as degnerate
   RTIME   =   -0.100 relaxation time in fs
  (WPLASMAI=    0.000 imaginary part of plasma frequency in eV, 0.658/RTIME)
   DFIELD  = 0.0000000 0.0000000 0.0000000 field for delta impulse in time
 
 Orbital magnetization related:
   ORBITALMAG=     F  switch on orbital magnetization
   LCHIMAG   =     F  perturbation theory with respect to B field
   DQ        =  0.001000  dq finite difference perturbation B field
   LLRAUG    =     F  two centre corrections for induced B field



--------------------------------------------------------------------------------------------------------


 molecular dynamics for ions
   using a microcanonical ensemble
 charge density and potential will be updated during run
 non-spin polarized calculation
 RMM-DIIS sequential band-by-band and
  variant of blocked Davidson during initial phase
 perform sub-space diagonalisation
    before iterative eigenvector-optimisation
 modified Broyden-mixing scheme, WC =      100.0
 initial mixing is a Kerker type mixing with AMIX =  0.4000 and BMIX =      1.0000
 Hartree-type preconditioning will be used
 using additional bands            4
 reciprocal scheme for non local part
 use partial core corrections
 calculate Harris-corrections to forces 
   (improved forces if not selfconsistent)
 use gradient corrections 
 use of overlap-Matrix (Vanderbilt PP)
 Gauss-broadening in eV      SIGMA  =   0.20


--------------------------------------------------------------------------------------------------------


  energy-cutoff  :      400.00
  volume of cell :      981.78
      direct lattice vectors                 reciprocal lattice vectors
     9.872163278  0.000000000  0.000000000     0.101294921  0.000089040  0.003080868
    -0.008913761 10.140600457  0.000000000     0.000000000  0.098613490  0.001794139
    -0.298123214 -0.178426125  9.807057553     0.000000000  0.000000000  0.101967384

  length of vectors
     9.872163278 10.140604375  9.813210035     0.101341801  0.098629809  0.101967384


 
 k-points in units of 2pi/SCALE and weight: read from INCAR                         
   0.02532373  0.02467563  0.02671060       0.250
  -0.02532373  0.02463111  0.02517016       0.250
   0.02532373 -0.02463111  0.02581353       0.250
  -0.02532373 -0.02467563  0.02427309       0.250
 
 k-points in reciprocal lattice and weights: read from INCAR                         
   0.25000000  0.25000000  0.25000000       0.250
  -0.25000000  0.25000000  0.25000000       0.250
   0.25000000 -0.25000000  0.25000000       0.250
  -0.25000000 -0.25000000  0.25000000       0.250
 
 position of ions in fractional coordinates (direct lattice) 
   0.53754542  0.40644158  0.36009600
   0.39410068  0.48006439  0.43849430
   0.55197288  0.56540792  0.44256412
   0.52881031  0.41644198  0.53897146
   0.50402371  0.46712835  0.44506888
 
 position of ions in cartesian coordinates  (Angst):
   5.19576025  4.05731115  3.53148217
   3.75562177  4.78990232  4.30033887
   5.31218786  5.65461081  4.34025177
   5.05610978  4.12680513  5.28572416
   4.83895516  4.65755005  4.36481614
 


--------------------------------------------------------------------------------------------------------


 k-point  1 :   0.2500 0.2500 0.2500  plane waves:   17820
 k-point  2 :  -0.2500 0.2500 0.2500  plane waves:   17843
 k-point  3 :   0.2500-0.2500 0.2500  plane waves:   17839
 k-point  4 :  -0.2500-0.2500 0.2500  plane waves:   17852

 maximum and minimum number of plane-waves per node :      4475     4436

 maximum number of plane-waves:     17852
 maximum index in each direction: 
   IXMAX=   16   IYMAX=   16   IZMAX=   15
   IXMIN=  -16   IYMIN=  -16   IZMIN=  -16


 parallel 3D FFT for wavefunctions:
    minimum data exchange during FFTs selected (reduces bandwidth)
 parallel 3D FFT for charge:
    minimum data exchange during FFTs selected (reduces bandwidth)


 total amount of memory used by VASP MPI-rank0    51227. kBytes
=======================================================================

   base      :      30000. kBytes
   nonl-proj :       2642. kBytes
   fftplans  :       7001. kBytes
   grid      :      11005. kBytes
   one-center:          6. kBytes
   wavefun   :        573. kBytes
 
     INWAV:  cpu time    0.0000: real time    0.0000
 Broyden mixing: mesh for mixing (old mesh)
   NGX = 33   NGY = 33   NGZ = 31
  (NGX  =128   NGY  =140   NGZ  =128)
  gives a total of  33759 points

 initial charge density was supplied:
 charge density of overlapping atoms calculated
 number of electron       8.0000000 magnetization 
 keeping initial charge density in first step


--------------------------------------------------------------------------------------------------------


 Maximum index for augmentation-charges          275 (set IRDMAX)


--------------------------------------------------------------------------------------------------------


 First call to EWALD:  gamma=   0.178
 Maximum number of real-space cells 3x 3x 3
 Maximum number of reciprocal cells 3x 3x 3

    FEWALD:  cpu time    0.0015: real time    0.0015


--------------------------------------- Iteration      1(   1)  ---------------------------------------


    POTLOK:  cpu time    0.1145: real time    0.1172
    SETDIJ:  cpu time    0.0016: real time    0.0016
     EDDAV:  cpu time    0.1602: real time    0.1602
       DOS:  cpu time    0.0003: real time    0.0003
    --------------------------------------------
      LOOP:  cpu time    0.2766: real time    0.2793

 eigenvalue-minimisations  :    88
 total energy-change (2. order) : 0.2875864E+02  (-0.1823466E+03)
 number of electron       8.0000000 magnetization 
 augmentation part        8.0000000 magnetization 

 Free energy of the ion-electron system (eV)
  ---------------------------------------------------
  alpha Z        PSCENC =         0.24674620
  Ewald energy   TEWEN  =       129.03974838
  -Hartree energ DENC   =      -243.81356176
  -exchange      EXHF   =         0.00000000
  -V(xc)+E(xc)   XCENC  =        22.03550164
  PAW double counting   =       117.05815612     -117.66307307
  entropy T*S    EENTRO =        -0.09378548
  eigenvalues    EBANDS =       -75.09284854
  atomic energy  EATOM  =       197.04175453
  Solvation  Ediel_sol  =         0.00000000
  ---------------------------------------------------
  free energy    TOTEN  =        28.75863803 eV

  energy without entropy =       28.85242351  energy(sigma->0) =       28.80553077


--------------------------------------------------------------------------------------------------------




--------------------------------------- Iteration      1(   2)  ---------------------------------------


     EDDAV:  cpu time    0.1386: real time    0.1386
       DOS:  cpu time    0.0002: real time    0.0002
    --------------------------------------------
      LOOP:  cpu time    0.1388: real time    0.1388

 eigenvalue-minimisations  :    72
 total energy-change (2. order) :-0.4619784E+02  (-0.4307764E+02)
 number of electron       8.0000000 magnetization 
 augmentation part        8.0000000 magnetization 

 Free energy of the ion-electron system (eV)
  ---------------------------------------------------
  alpha Z        PSCENC =         0.24674620
  Ewald energy   TEWEN  =       129.03974838
  -Hartree energ DENC   =      -243.81356176
  -exchange      EXHF   =         0.00000000
  -V(xc)+E(xc)   XCENC  =        22.03550164
  PAW double counting   =       117.05815612     -117.66307307
  entropy T*S    EENTRO =        -0.00000000
  eigenvalues    EBANDS =      -121.38447885
  atomic energy  EATOM  =       197.04175453
  Solvation  Ediel_sol  =         0.00000000
  ---------------------------------------------------
  free energy    TOTEN  =       -17.43920681 eV

  energy without entropy =      -17.43920681  energy(sigma->0) =      -17.43920681


--------------------------------------------------------------------------------------------------------




--------------------------------------- Iteration      1(   3)  ---------------------------------------


     EDDAV:  cpu time    0.1277: real time    0.1278
       DOS:  cpu time    0.0004: real time    0.0004
    --------------------------------------------
      LOOP:  cpu time    0.1281: real time    0.1282

 eigenvalue-minimisations  :    64
 total energy-change (2. order) :-0.9571240E+01  (-0.9571240E+01)
 number of electron       8.0000000 magnetization 
 augmentation part        8.0000000 magnetization 

 Free energy of the ion-electron system (eV)
  ---------------------------------------------------
  alpha Z        PSCENC =         0.24674620
  Ewald energy   TEWEN  =       129.03974838
  -Hartree energ DENC   =      -243.81356176
  -exchange      EXHF   =         0.00000000
  -V(xc)+E(xc)   XCENC  =        22.03550164
  PAW double counting   =       117.05815612     -117.66307307
  entropy T*S    EENTRO =        -0.00000000
  eigenvalues    EBANDS =      -130.95571860
  atomic energy  EATOM  =       197.04175453
  Solvation  Ediel_sol  =         0.00000000
  ---------------------------------------------------
  free energy    TOTEN  =       -27.01044655 eV

  energy without entropy =      -27.01044655  energy(sigma->0) =      -27.01044655


--------------------------------------------------------------------------------------------------------




--------------------------------------- Iteration      1(   4)  ---------------------------------------


     EDDAV:  cpu time    0.1914: real time    0.1914
       DOS:  cpu time    0.0002: real time    0.0002
    --------------------------------------------
      LOOP:  cpu time    0.1916: real time    0.1916

 eigenvalue-minimisations  :   112
 total energy-change (2. order) :-0.5905870E+00  (-0.5905870E+00)
 number of electron       8.0000000 magnetization 
 augmentation part        8.0000000 magnetization 

 Free energy of the ion-electron system (eV)
  ---------------------------------------------------
  alpha Z        PSCENC =         0.24674620
  Ewald energy   TEWEN  =       129.03974838
  -Hartree energ DENC   =      -243.81356176
  -exchange      EXHF   =         0.00000000
  -V(xc)+E(xc)   XCENC  =        22.03550164
  PAW double counting   =       117.05815612     -117.66307307
  entropy T*S    EENTRO =        -0.00000000
  eigenvalues    EBANDS =      -131.54630556
  atomic energy  EATOM  =       197.04175453
  Solvation  Ediel_sol  =         0.00000000
  ---------------------------------------------------
  free energy    TOTEN  =       -27.60103351 eV

  energy without entropy =      -27.60103351  energy(sigma->0) =      -27.60103351


--------------------------------------------------------------------------------------------------------




--------------------------------------- Iteration      1(   5)  ---------------------------------------


     EDDAV:  cpu time    0.1807: real time    0.1807
       DOS:  cpu time    0.0002: real time    0.0002
    CHARGE:  cpu time    0.0156: real time    0.0156
    MIXING:  cpu time    0.0034: real time    0.0034
    --------------------------------------------
      LOOP:  cpu time    0.1999: real time    0.1999

 eigenvalue-minimisations  :   104
 total energy-change (2. order) :-0.1189234E-01  (-0.1189234E-01)
 number of electron       8.0000003 magnetization 
 augmentation part        0.2269798 magnetization 

 Broyden mixing:
  rms(total) = 0.88014E+00    rms(broyden)= 0.87992E+00
  rms(prec ) = 0.12453E+01
  weight for this iteration     100.00

 Free energy of the ion-electron system (eV)
  ---------------------------------------------------
  alpha Z        PSCENC =         0.24674620
  Ewald energy   TEWEN  =       129.03974838
  -Hartree energ DENC   =      -243.81356176
  -exchange      EXHF   =         0.00000000
  -V(xc)+E(xc)   XCENC  =        22.03550164
  PAW double counting   =       117.05815612     -117.66307307
  entropy T*S    EENTRO =        -0.00000000
  eigenvalues    EBANDS =      -131.55819790
  atomic energy  EATOM  =       197.04175453
  Solvation  Ediel_sol  =         0.00000000
  ---------------------------------------------------
  free energy    TOTEN  =       -27.61292585 eV

  energy without entropy =      -27.61292585  energy(sigma->0) =      -27.61292585


--------------------------------------------------------------------------------------------------------




--------------------------------------- Iteration      1(   6)  ---------------------------------------


    POTLOK:  cpu time    0.1115: real time    0.1115
    SETDIJ:  cpu time    0.0016: real time    0.0016
    EDDIAG:  cpu time    0.0305: real time    0.0305
  RMM-DIIS:  cpu time    0.1276: real time    0.1276
    ORTHCH:  cpu time    0.0015: real time    0.0015
       DOS:  cpu time    0.0002: real time    0.0002
    CHARGE:  cpu time    0.0149: real time    0.0149
    MIXING:  cpu time    0.0037: real time    0.0037
    --------------------------------------------
      LOOP:  cpu time    0.2914: real time    0.2914

 eigenvalue-minimisations  :    64
 total energy-change (2. order) : 0.2947829E+01  (-0.5535196E+00)
 number of electron       8.0000003 magnetization 
 augmentation part        0.2001026 magnetization 

 Broyden mixing:
  rms(total) = 0.43301E+00    rms(broyden)= 0.43291E+00
  rms(prec ) = 0.56196E+00
  weight for this iteration     100.00

 eigenvalues of (default mixing * dielectric matrix)
  average eigenvalue GAMMA=   1.3098
  1.3098

 Free energy of the ion-electron system (eV)
  ---------------------------------------------------
  alpha Z        PSCENC =         0.24674620
  Ewald energy   TEWEN  =       129.03974838
  -Hartree energ DENC   =      -263.72444137
  -exchange      EXHF   =         0.00000000
  -V(xc)+E(xc)   XCENC  =        23.24420749
  PAW double counting   =       239.93144562     -240.71376676
  entropy T*S    EENTRO =        -0.00000000
  eigenvalues    EBANDS =      -109.73079114
  atomic energy  EATOM  =       197.04175453
  Solvation  Ediel_sol  =         0.00000000
  ---------------------------------------------------
  free energy    TOTEN  =       -24.66509704 eV

  energy without entropy =      -24.66509704  energy(sigma->0) =      -24.66509704


--------------------------------------------------------------------------------------------------------




--------------------------------------- Iteration      1(   7)  ---------------------------------------


    POTLOK:  cpu time    0.1116: real time    0.1116
    SETDIJ:  cpu time    0.0015: real time    0.0014
    EDDIAG:  cpu time    0.0281: real time    0.0282
  RMM-DIIS:  cpu time    0.1253: real time    0.1253
    ORTHCH:  cpu time    0.0015: real time    0.0015
       DOS:  cpu time    0.0002: real time    0.0002
    CHARGE:  cpu time    0.0141: real time    0.0141
    MIXING:  cpu time    0.0038: real time    0.0038
    --------------------------------------------
      LOOP:  cpu time    0.2862: real time    0.2862

 eigenvalue-minimisations  :    64
 total energy-change (2. order) : 0.5023381E+00  (-0.1279330E+00)
 number of electron       8.0000002 magnetization 
 augmentation part        0.1893690 magnetization 

 Broyden mixing:
  rms(total) = 0.22963E+00    rms(broyden)= 0.22957E+00
  rms(prec ) = 0.27712E+00
  weight for this iteration     100.00

 eigenvalues of (default mixing * dielectric matrix)
  average eigenvalue GAMMA=   1.8446
  1.4660  2.2232

 Free energy of the ion-electron system (eV)
  ---------------------------------------------------
  alpha Z        PSCENC =         0.24674620
  Ewald energy   TEWEN  =       129.03974838
  -Hartree energ DENC   =      -275.60020996
  -exchange      EXHF   =         0.00000000
  -V(xc)+E(xc)   XCENC  =        24.11456492
  PAW double counting   =       369.50920573     -370.33247498
  entropy T*S    EENTRO =        -0.00000000
  eigenvalues    EBANDS =       -98.18209375
  atomic energy  EATOM  =       197.04175453
  Solvation  Ediel_sol  =         0.00000000
  ---------------------------------------------------
  free energy    TOTEN  =       -24.16275892 eV

  energy without entropy =      -24.16275892  energy(sigma->0) =      -24.16275892


--------------------------------------------------------------------------------------------------------




--------------------------------------- Iteration      1(   8)  ---------------------------------------


    POTLOK:  cpu time    0.1116: real time    0.1116
    SETDIJ:  cpu time    0.0014: real time    0.0014
    EDDIAG:  cpu time    0.0278: real time    0.0278
  RMM-DIIS:  cpu time    0.1270: real time    0.1270
    ORTHCH:  cpu time    0.0014: real time    0.0014
       DOS:  cpu time    0.0002: real time    0.0002
    CHARGE:  cpu time    0.0142: real time    0.0142
    MIXING:  cpu time    0.0038: real time    0.0038
    --------------------------------------------
      LOOP:  cpu time    0.2874: real time    0.2874

 eigenvalue-minimisations  :    64
 total energy-change (2. order) : 0.1468478E+00  (-0.1625177E-01)
 number of electron       8.0000002 magnetization 
 augmentation part        0.1879806 magnetization 

 Broyden mixing:
  rms(total) = 0.22561E-01    rms(broyden)= 0.22537E-01
  rms(prec ) = 0.52739E-01
  weight for this iteration     100.00

 eigenvalues of (default mixing * dielectric matrix)
  average eigenvalue GAMMA=   1.5514
  2.2480  0.9916  1.4147

 Free energy of the ion-electron system (eV)
  ---------------------------------------------------
  alpha Z        PSCENC =         0.24674620
  Ewald energy   TEWEN  =       129.03974838
  -Hartree energ DENC   =      -280.98454803
  -exchange      EXHF   =         0.00000000
  -V(xc)+E(xc)   XCENC  =        24.64947964
  PAW double counting   =       480.43493242     -481.22575437
  entropy T*S    EENTRO =        -0.00000000
  eigenvalues    EBANDS =       -93.21826989
  atomic energy  EATOM  =       197.04175453
  Solvation  Ediel_sol  =         0.00000000
  ---------------------------------------------------
  free energy    TOTEN  =       -24.01591111 eV

  energy without entropy =      -24.01591111  energy(sigma->0) =      -24.01591111


--------------------------------------------------------------------------------------------------------




--------------------------------------- Iteration      1(   9)  ---------------------------------------


    POTLOK:  cpu time    0.1111: real time    0.1111
    SETDIJ:  cpu time    0.0014: real time    0.0014
    EDDIAG:  cpu time    0.0277: real time    0.0277
  RMM-DIIS:  cpu time    0.1268: real time    0.1268
    ORTHCH:  cpu time    0.0017: real time    0.0017
       DOS:  cpu time    0.0002: real time    0.0002
    CHARGE:  cpu time    0.0140: real time    0.0140
    MIXING:  cpu time    0.0040: real time    0.0040
    --------------------------------------------
      LOOP:  cpu time    0.2869: real time    0.2870

 eigenvalue-minimisations  :    64
 total energy-change (2. order) : 0.5708358E-02  (-0.1123548E-02)
 number of electron       8.0000002 magnetization 
 augmentation part        0.1874033 magnetization 

 Broyden mixing:
  rms(total) = 0.19697E-01    rms(broyden)= 0.19693E-01
  rms(prec ) = 0.40527E-01
  weight for this iteration     100.00

 eigenvalues of (default mixing * dielectric matrix)
  average eigenvalue GAMMA=   2.1049
  3.1357  2.8997  1.0012  1.3828

 Free energy of the ion-electron system (eV)
  ---------------------------------------------------
  alpha Z        PSCENC =         0.24674620
  Ewald energy   TEWEN  =       129.03974838
  -Hartree energ DENC   =      -282.25244781
  -exchange      EXHF   =         0.00000000
  -V(xc)+E(xc)   XCENC  =        24.71997105
  PAW double counting   =       484.10864615     -484.90215841
  entropy T*S    EENTRO =        -0.00000000
  eigenvalues    EBANDS =       -92.01246284
  atomic energy  EATOM  =       197.04175453
  Solvation  Ediel_sol  =         0.00000000
  ---------------------------------------------------
  free energy    TOTEN  =       -24.01020276 eV

  energy without entropy =      -24.01020276  energy(sigma->0) =      -24.01020276


--------------------------------------------------------------------------------------------------------




--------------------------------------- Iteration      1(  10)  ---------------------------------------


    POTLOK:  cpu time    0.1071: real time    0.1072
    SETDIJ:  cpu time    0.0015: real time    0.0015
    EDDIAG:  cpu time    0.0279: real time    0.0279
  RMM-DIIS:  cpu time    0.1269: real time    0.1269
    ORTHCH:  cpu time    0.0015: real time    0.0015
       DOS:  cpu time    0.0002: real time    0.0002
    CHARGE:  cpu time    0.0140: real time    0.0140
    MIXING:  cpu time    0.0041: real time    0.0041
    --------------------------------------------
      LOOP:  cpu time    0.2833: real time    0.2833

 eigenvalue-minimisations  :    64
 total energy-change (2. order) : 0.5943956E-02  (-0.2481279E-02)
 number of electron       8.0000002 magnetization 
 augmentation part        0.1863411 magnetization 

 Broyden mixing:
  rms(total) = 0.28441E-01    rms(broyden)= 0.28439E-01
  rms(prec ) = 0.36019E-01
  weight for this iteration     100.00

 eigenvalues of (default mixing * dielectric matrix)
  average eigenvalue GAMMA=   1.7800
  3.0722  2.4476  1.2032  1.2032  0.9739

 Free energy of the ion-electron system (eV)
  ---------------------------------------------------
  alpha Z        PSCENC =         0.24674620
  Ewald energy   TEWEN  =       129.03974838
  -Hartree energ DENC   =      -284.46339106
  -exchange      EXHF   =         0.00000000
  -V(xc)+E(xc)   XCENC  =        24.78999123
  PAW double counting   =       467.74293394     -468.54015152
  entropy T*S    EENTRO =        -0.00000000
  eigenvalues    EBANDS =       -89.86189051
  atomic energy  EATOM  =       197.04175453
  Solvation  Ediel_sol  =         0.00000000
  ---------------------------------------------------
  free energy    TOTEN  =       -24.00425880 eV

  energy without entropy =      -24.00425880  energy(sigma->0) =      -24.00425880


--------------------------------------------------------------------------------------------------------




--------------------------------------- Iteration      1(  11)  ---------------------------------------


    POTLOK:  cpu time    0.1069: real time    0.1069
    SETDIJ:  cpu time    0.0015: real time    0.0015
    EDDIAG:  cpu time    0.0278: real time    0.0278
  RMM-DIIS:  cpu time    0.1254: real time    0.1254
    ORTHCH:  cpu time    0.0015: real time    0.0015
       DOS:  cpu time    0.0002: real time    0.0002
    CHARGE:  cpu time    0.0142: real time    0.0142
    MIXING:  cpu time    0.0041: real time    0.0041
    --------------------------------------------
      LOOP:  cpu time    0.2815: real time    0.2816

 eigenvalue-minimisations  :    64
 total energy-change (2. order) :-0.4259200E-03  (-0.7036587E-03)
 number of electron       8.0000002 magnetization 
 augmentation part        0.1866742 magnetization 

 Broyden mixing:
  rms(total) = 0.65830E-02    rms(broyden)= 0.65794E-02
  rms(prec ) = 0.12873E-01
  weight for this iteration     100.00

 eigenvalues of (default mixing * dielectric matrix)
  average eigenvalue GAMMA=   2.2819
  4.8291  3.1212  2.4282  1.2988  1.0069  1.0069

 Free energy of the ion-electron system (eV)
  ---------------------------------------------------
  alpha Z        PSCENC =         0.24674620
  Ewald energy   TEWEN  =       129.03974838
  -Hartree energ DENC   =      -284.35540632
  -exchange      EXHF   =         0.00000000
  -V(xc)+E(xc)   XCENC  =        24.80348583
  PAW double counting   =       476.80189085     -477.59190127
  entropy T*S    EENTRO =        -0.00000000
  eigenvalues    EBANDS =       -89.99100293
  atomic energy  EATOM  =       197.04175453
  Solvation  Ediel_sol  =         0.00000000
  ---------------------------------------------------
  free energy    TOTEN  =       -24.00468472 eV

  energy without entropy =      -24.00468472  energy(sigma->0) =      -24.00468472


--------------------------------------------------------------------------------------------------------




--------------------------------------- Iteration      1(  12)  ---------------------------------------


    POTLOK:  cpu time    0.1006: real time    0.1006
    SETDIJ:  cpu time    0.0014: real time    0.0014
    EDDIAG:  cpu time    0.0278: real time    0.0278
  RMM-DIIS:  cpu time    0.1267: real time    0.1267
    ORTHCH:  cpu time    0.0013: real time    0.0013
       DOS:  cpu time    0.0002: real time    0.0002
    CHARGE:  cpu time    0.0141: real time    0.0141
    MIXING:  cpu time    0.0044: real time    0.0044
    --------------------------------------------
      LOOP:  cpu time    0.2765: real time    0.2765

 eigenvalue-minimisations  :    64
 total energy-change (2. order) :-0.9956136E-02  (-0.4497049E-03)
 number of electron       8.0000002 magnetization 
 augmentation part        0.1869520 magnetization 

 Broyden mixing:
  rms(total) = 0.13195E-01    rms(broyden)= 0.13193E-01
  rms(prec ) = 0.17169E-01
  weight for this iteration     100.00

 eigenvalues of (default mixing * dielectric matrix)
  average eigenvalue GAMMA=   2.0185
  4.8147  2.9379  2.4347  1.2499  0.9992  0.9992  0.6942

 Free energy of the ion-electron system (eV)
  ---------------------------------------------------
  alpha Z        PSCENC =         0.24674620
  Ewald energy   TEWEN  =       129.03974838
  -Hartree energ DENC   =      -284.53117962
  -exchange      EXHF   =         0.00000000
  -V(xc)+E(xc)   XCENC  =        24.79548281
  PAW double counting   =       474.35382208     -475.14195206
  entropy T*S    EENTRO =        -0.00000000
  eigenvalues    EBANDS =       -89.81906318
  atomic energy  EATOM  =       197.04175453
  Solvation  Ediel_sol  =         0.00000000
  ---------------------------------------------------
  free energy    TOTEN  =       -24.01464086 eV

  energy without entropy =      -24.01464086  energy(sigma->0) =      -24.01464086


--------------------------------------------------------------------------------------------------------




--------------------------------------- Iteration      1(  13)  ---------------------------------------


    POTLOK:  cpu time    0.1012: real time    0.1012
    SETDIJ:  cpu time    0.0014: real time    0.0014
    EDDIAG:  cpu time    0.0279: real time    0.0279
  RMM-DIIS:  cpu time    0.1247: real time    0.1247
    ORTHCH:  cpu time    0.0015: real time    0.0015
       DOS:  cpu time    0.0002: real time    0.0002
    CHARGE:  cpu time    0.0140: real time    0.0140
    MIXING:  cpu time    0.0046: real time    0.0046
    --------------------------------------------
      LOOP:  cpu time    0.2754: real time    0.2754

 eigenvalue-minimisations  :    64
 total energy-change (2. order) :-0.3398708E-03  (-0.8353103E-04)
 number of electron       8.0000002 magnetization 
 augmentation part        0.1867347 magnetization 

 Broyden mixing:
  rms(total) = 0.61670E-02    rms(broyden)= 0.61669E-02
  rms(prec ) = 0.81106E-02
  weight for this iteration     100.00

 eigenvalues of (default mixing * dielectric matrix)
  average eigenvalue GAMMA=   2.4103
  6.0784  4.0155  2.5470  2.3309  1.2208  1.2208  0.9983  0.8710

 Free energy of the ion-electron system (eV)
  ---------------------------------------------------
  alpha Z        PSCENC =         0.24674620
  Ewald energy   TEWEN  =       129.03974838
  -Hartree energ DENC   =      -284.71984933
  -exchange      EXHF   =         0.00000000
  -V(xc)+E(xc)   XCENC  =        24.80133018
  PAW double counting   =       474.21530082     -475.00579323
  entropy T*S    EENTRO =        -0.00000000
  eigenvalues    EBANDS =       -89.63421829
  atomic energy  EATOM  =       197.04175453
  Solvation  Ediel_sol  =         0.00000000
  ---------------------------------------------------
  free energy    TOTEN  =       -24.01498073 eV

  energy without entropy =      -24.01498073  energy(sigma->0) =      -24.01498073


--------------------------------------------------------------------------------------------------------




--------------------------------------- Iteration      1(  14)  ---------------------------------------


    POTLOK:  cpu time    0.0994: real time    0.0994
    SETDIJ:  cpu time    0.0014: real time    0.0014
    EDDIAG:  cpu time    0.0277: real time    0.0277
  RMM-DIIS:  cpu time    0.1245: real time    0.1245
    ORTHCH:  cpu time    0.0013: real time    0.0013
       DOS:  cpu time    0.0002: real time    0.0002
    CHARGE:  cpu time    0.0139: real time    0.0139
    MIXING:  cpu time    0.0045: real time    0.0045
    --------------------------------------------
      LOOP:  cpu time    0.2730: real time    0.2730

 eigenvalue-minimisations  :    64
 total energy-change (2. order) :-0.2853913E-02  (-0.2136736E-03)
 number of electron       8.0000002 magnetization 
 augmentation part        0.1865112 magnetization 

 Broyden mixing:
  rms(total) = 0.46543E-02    rms(broyden)= 0.46521E-02
  rms(prec ) = 0.60506E-02
  weight for this iteration     100.00

 eigenvalues of (default mixing * dielectric matrix)
  average eigenvalue GAMMA=   2.3060
  6.4229  4.1287  2.4393  2.4393  1.2008  1.2008  0.9577  0.9577  1.0066

 Free energy of the ion-electron system (eV)
  ---------------------------------------------------
  alpha Z        PSCENC =         0.24674620
  Ewald energy   TEWEN  =       129.03974838
  -Hartree energ DENC   =      -284.78516449
  -exchange      EXHF   =         0.00000000
  -V(xc)+E(xc)   XCENC  =        24.79383501
  PAW double counting   =       473.25350459     -474.04626717
  entropy T*S    EENTRO =        -0.00000000
  eigenvalues    EBANDS =       -89.56199169
  atomic energy  EATOM  =       197.04175453
  Solvation  Ediel_sol  =         0.00000000
  ---------------------------------------------------
  free energy    TOTEN  =       -24.01783464 eV

  energy without entropy =      -24.01783464  energy(sigma->0) =      -24.01783464


--------------------------------------------------------------------------------------------------------




--------------------------------------- Iteration      1(  15)  ---------------------------------------


    POTLOK:  cpu time    0.0993: real time    0.0993
    SETDIJ:  cpu time    0.0015: real time    0.0015
    EDDIAG:  cpu time    0.0281: real time    0.0281
  RMM-DIIS:  cpu time    0.1249: real time    0.1249
    ORTHCH:  cpu time    0.0014: real time    0.0014
       DOS:  cpu time    0.0002: real time    0.0002
    CHARGE:  cpu time    0.0140: real time    0.0140
    MIXING:  cpu time    0.0047: real time    0.0047
    --------------------------------------------
      LOOP:  cpu time    0.2741: real time    0.2741

 eigenvalue-minimisations  :    64
 total energy-change (2. order) :-0.1872669E-03  (-0.1614145E-04)
 number of electron       8.0000002 magnetization 
 augmentation part        0.1865290 magnetization 

 Broyden mixing:
  rms(total) = 0.14665E-02    rms(broyden)= 0.14664E-02
  rms(prec ) = 0.19081E-02
  weight for this iteration     100.00

 eigenvalues of (default mixing * dielectric matrix)
  average eigenvalue GAMMA=   2.5326
  7.4524  4.8821  2.9802  2.5313  1.9797  1.3059  1.3059  1.0002  1.0002  0.8885

 Free energy of the ion-electron system (eV)
  ---------------------------------------------------
  alpha Z        PSCENC =         0.24674620
  Ewald energy   TEWEN  =       129.03974838
  -Hartree energ DENC   =      -284.69911959
  -exchange      EXHF   =         0.00000000
  -V(xc)+E(xc)   XCENC  =        24.79029430
  PAW double counting   =       473.40981259     -474.20130928
  entropy T*S    EENTRO =        -0.00000000
  eigenvalues    EBANDS =       -89.64594904
  atomic energy  EATOM  =       197.04175453
  Solvation  Ediel_sol  =         0.00000000
  ---------------------------------------------------
  free energy    TOTEN  =       -24.01802191 eV

  energy without entropy =      -24.01802191  energy(sigma->0) =      -24.01802191


--------------------------------------------------------------------------------------------------------




--------------------------------------- Iteration      1(  16)  ---------------------------------------


    POTLOK:  cpu time    0.1006: real time    0.1007
    SETDIJ:  cpu time    0.0015: real time    0.0015
    EDDIAG:  cpu time    0.0278: real time    0.0279
  RMM-DIIS:  cpu time    0.1246: real time    0.1247
    ORTHCH:  cpu time    0.0017: real time    0.0017
       DOS:  cpu time    0.0002: real time    0.0002
    CHARGE:  cpu time    0.0140: real time    0.0140
    MIXING:  cpu time    0.0049: real time    0.0049
    --------------------------------------------
      LOOP:  cpu time    0.2754: real time    0.2754

 eigenvalue-minimisations  :    64
 total energy-change (2. order) :-0.2200477E-03  (-0.1580729E-04)
 number of electron       8.0000002 magnetization 
 augmentation part        0.1866072 magnetization 

 Broyden mixing:
  rms(total) = 0.13586E-02    rms(broyden)= 0.13580E-02
  rms(prec ) = 0.18226E-02
  weight for this iteration     100.00

 eigenvalues of (default mixing * dielectric matrix)
  average eigenvalue GAMMA=   2.4621
  7.6128  4.6718  3.4921  2.3446  2.3446  1.2523  1.2523  0.9065  0.9717  1.1170
  1.1170

 Free energy of the ion-electron system (eV)
  ---------------------------------------------------
  alpha Z        PSCENC =         0.24674620
  Ewald energy   TEWEN  =       129.03974838
  -Hartree energ DENC   =      -284.67481563
  -exchange      EXHF   =         0.00000000
  -V(xc)+E(xc)   XCENC  =        24.79003946
  PAW double counting   =       473.49861488     -474.28947608
  entropy T*S    EENTRO =        -0.00000000
  eigenvalues    EBANDS =       -89.67085370
  atomic energy  EATOM  =       197.04175453
  Solvation  Ediel_sol  =         0.00000000
  ---------------------------------------------------
  free energy    TOTEN  =       -24.01824196 eV

  energy without entropy =      -24.01824195  energy(sigma->0) =      -24.01824196


--------------------------------------------------------------------------------------------------------




--------------------------------------- Iteration      1(  17)  ---------------------------------------


    POTLOK:  cpu time    0.1014: real time    0.1014
    SETDIJ:  cpu time    0.0014: real time    0.0014
    EDDIAG:  cpu time    0.0277: real time    0.0277
  RMM-DIIS:  cpu time    0.1263: real time    0.1263
    ORTHCH:  cpu time    0.0014: real time    0.0014
       DOS:  cpu time    0.0002: real time    0.0002
    CHARGE:  cpu time    0.0141: real time    0.0141
    MIXING:  cpu time    0.0052: real time    0.0052
    --------------------------------------------
      LOOP:  cpu time    0.2777: real time    0.2777

 eigenvalue-minimisations  :    64
 total energy-change (2. order) :-0.1754078E-04  (-0.3653174E-05)
 number of electron       8.0000002 magnetization 
 augmentation part        0.1865668 magnetization 

 Broyden mixing:
  rms(total) = 0.17622E-03    rms(broyden)= 0.17613E-03
  rms(prec ) = 0.25268E-03
  weight for this iteration     100.00

 eigenvalues of (default mixing * dielectric matrix)
  average eigenvalue GAMMA=   2.5623
  8.3292  5.1096  3.9853  2.5241  2.5241  1.8075  1.3299  1.3299  1.0279  0.9571
  0.9571  0.8657

 Free energy of the ion-electron system (eV)
  ---------------------------------------------------
  alpha Z        PSCENC =         0.24674620
  Ewald energy   TEWEN  =       129.03974838
  -Hartree energ DENC   =      -284.72509975
  -exchange      EXHF   =         0.00000000
  -V(xc)+E(xc)   XCENC  =        24.79247116
  PAW double counting   =       473.51790446     -474.30922205
  entropy T*S    EENTRO =        -0.00000000
  eigenvalues    EBANDS =       -89.62256243
  atomic energy  EATOM  =       197.04175453
  Solvation  Ediel_sol  =         0.00000000
  ---------------------------------------------------
  free energy    TOTEN  =       -24.01825950 eV

  energy without entropy =      -24.01825950  energy(sigma->0) =      -24.01825950


--------------------------------------------------------------------------------------------------------




--------------------------------------- Iteration      1(  18)  ---------------------------------------


    POTLOK:  cpu time    0.1039: real time    0.1039
    SETDIJ:  cpu time    0.0014: real time    0.0014
    EDDIAG:  cpu time    0.0275: real time    0.0275
  RMM-DIIS:  cpu time    0.0995: real time    0.0995
    ORTHCH:  cpu time    0.0013: real time    0.0013
       DOS:  cpu time    0.0002: real time    0.0002
    CHARGE:  cpu time    0.0140: real time    0.0140
    MIXING:  cpu time    0.0052: real time    0.0052
    --------------------------------------------
      LOOP:  cpu time    0.2530: real time    0.2531

 eigenvalue-minimisations  :    48
 total energy-change (2. order) :-0.1945965E-04  (-0.1608818E-06)
 number of electron       8.0000002 magnetization 
 augmentation part        0.1865627 magnetization 

 Broyden mixing:
  rms(total) = 0.77124E-04    rms(broyden)= 0.77035E-04
  rms(prec ) = 0.12155E-03
  weight for this iteration     100.00

 eigenvalues of (default mixing * dielectric matrix)
  average eigenvalue GAMMA=   2.4886
  8.3657  5.2482  3.8879  2.7142  2.4925  1.9321  1.3087  1.3087  0.8881  0.9928
  0.9928  1.1102  1.1102

 Free energy of the ion-electron system (eV)
  ---------------------------------------------------
  alpha Z        PSCENC =         0.24674620
  Ewald energy   TEWEN  =       129.03974838
  -Hartree energ DENC   =      -284.71939283
  -exchange      EXHF   =         0.00000000
  -V(xc)+E(xc)   XCENC  =        24.79200788
  PAW double counting   =       473.41491938     -474.20623700
  entropy T*S    EENTRO =        -0.00000000
  eigenvalues    EBANDS =       -89.62782550
  atomic energy  EATOM  =       197.04175453
  Solvation  Ediel_sol  =         0.00000000
  ---------------------------------------------------
  free energy    TOTEN  =       -24.01827896 eV

  energy without entropy =      -24.01827896  energy(sigma->0) =      -24.01827896


--------------------------------------------------------------------------------------------------------




--------------------------------------- Iteration      1(  19)  ---------------------------------------


    POTLOK:  cpu time    0.1045: real time    0.1045
    SETDIJ:  cpu time    0.0014: real time    0.0014
    EDDIAG:  cpu time    0.0274: real time    0.0274
  RMM-DIIS:  cpu time    0.1000: real time    0.1000
    ORTHCH:  cpu time    0.0015: real time    0.0015
       DOS:  cpu time    0.0002: real time    0.0002
    CHARGE:  cpu time    0.0139: real time    0.0139
    MIXING:  cpu time    0.0055: real time    0.0055
    --------------------------------------------
      LOOP:  cpu time    0.2544: real time    0.2544

 eigenvalue-minimisations  :    48
 total energy-change (2. order) :-0.2607497E-05  (-0.4172871E-07)
 number of electron       8.0000002 magnetization 
 augmentation part        0.1865613 magnetization 

 Broyden mixing:
  rms(total) = 0.84939E-04    rms(broyden)= 0.84911E-04
  rms(prec ) = 0.11883E-03
  weight for this iteration     100.00

 eigenvalues of (default mixing * dielectric matrix)
  average eigenvalue GAMMA=   2.5308
  8.4059  5.5067  3.8734  3.1296  2.6129  2.4896  1.9565  1.3174  1.3174  0.9836
  0.9836  1.0234  0.8968  0.9348

 Free energy of the ion-electron system (eV)
  ---------------------------------------------------
  alpha Z        PSCENC =         0.24674620
  Ewald energy   TEWEN  =       129.03974838
  -Hartree energ DENC   =      -284.71701507
  -exchange      EXHF   =         0.00000000
  -V(xc)+E(xc)   XCENC  =        24.79181531
  PAW double counting   =       473.40621060     -474.19752519
  entropy T*S    EENTRO =        -0.00000000
  eigenvalues    EBANDS =       -89.63001632
  atomic energy  EATOM  =       197.04175453
  Solvation  Ediel_sol  =         0.00000000
  ---------------------------------------------------
  free energy    TOTEN  =       -24.01828156 eV

  energy without entropy =      -24.01828156  energy(sigma->0) =      -24.01828156


--------------------------------------------------------------------------------------------------------




--------------------------------------- Iteration      1(  20)  ---------------------------------------


    POTLOK:  cpu time    0.1060: real time    0.1060
    SETDIJ:  cpu time    0.0015: real time    0.0015
    EDDIAG:  cpu time    0.0277: real time    0.0277
  RMM-DIIS:  cpu time    0.1020: real time    0.1020
    ORTHCH:  cpu time    0.0014: real time    0.0014
       DOS:  cpu time    0.0002: real time    0.0002
    CHARGE:  cpu time    0.0140: real time    0.0140
    MIXING:  cpu time    0.0056: real time    0.0056
    --------------------------------------------
      LOOP:  cpu time    0.2583: real time    0.2584

 eigenvalue-minimisations  :    48
 total energy-change (2. order) :-0.1797585E-05  (-0.1913201E-07)
 number of electron       8.0000002 magnetization 
 augmentation part        0.1865631 magnetization 

 Broyden mixing:
  rms(total) = 0.24083E-04    rms(broyden)= 0.24072E-04
  rms(prec ) = 0.33435E-04
  weight for this iteration     100.00

 eigenvalues of (default mixing * dielectric matrix)
  average eigenvalue GAMMA=   2.4757
  8.4497  5.5644  3.9934  3.7352  2.4504  2.4504  1.8898  1.3276  1.3276  1.0558
  1.0558  1.0519  0.9535  0.9535  0.8760

 Free energy of the ion-electron system (eV)
  ---------------------------------------------------
  alpha Z        PSCENC =         0.24674620
  Ewald energy   TEWEN  =       129.03974838
  -Hartree energ DENC   =      -284.71316842
  -exchange      EXHF   =         0.00000000
  -V(xc)+E(xc)   XCENC  =        24.79160022
  PAW double counting   =       473.40970723     -474.20097653
  entropy T*S    EENTRO =        -0.00000000
  eigenvalues    EBANDS =       -89.63369498
  atomic energy  EATOM  =       197.04175453
  Solvation  Ediel_sol  =         0.00000000
  ---------------------------------------------------
  free energy    TOTEN  =       -24.01828336 eV

  energy without entropy =      -24.01828336  energy(sigma->0) =      -24.01828336


--------------------------------------------------------------------------------------------------------




--------------------------------------- Iteration      1(  21)  ---------------------------------------


    POTLOK:  cpu time    0.1065: real time    0.1065
    SETDIJ:  cpu time    0.0015: real time    0.0015
    EDDIAG:  cpu time    0.0284: real time    0.0284
  RMM-DIIS:  cpu time    0.0854: real time    0.0854
    ORTHCH:  cpu time    0.0013: real time    0.0013
       DOS:  cpu time    0.0002: real time    0.0001
    --------------------------------------------
      LOOP:  cpu time    0.2231: real time    0.2231

 eigenvalue-minimisations  :    32
 total energy-change (2. order) :-0.1768820E-06  ( 0.0000000E+00)
 number of electron       8.0000002 magnetization 
 augmentation part        0.1865631 magnetization 

 Free energy of the ion-electron system (eV)
  ---------------------------------------------------
  alpha Z        PSCENC =         0.24674620
  Ewald energy   TEWEN  =       129.03974838
  -Hartree energ DENC   =      -284.71367890
  -exchange      EXHF   =         0.00000000
  -V(xc)+E(xc)   XCENC  =        24.79162761
  PAW double counting   =       473.41034307     -474.20161913
  entropy T*S    EENTRO =        -0.00000000
  eigenvalues    EBANDS =       -89.63320530
  atomic energy  EATOM  =       197.04175453
  Solvation  Ediel_sol  =         0.00000000
  ---------------------------------------------------
  free energy    TOTEN  =       -24.01828354 eV

  energy without entropy =      -24.01828354  energy(sigma->0) =      -24.01828354


--------------------------------------------------------------------------------------------------------




 average (electrostatic) potential at core
  the test charge radii are     0.5201  0.6991
  (the norm of the test charge is              1.0000)
       1 -41.5606       2 -41.4964       3 -41.4442       4 -41.5799       5 -57.9307
 
 
 
 E-fermi :  -8.1664     XC(G=0):  -0.7095     alpha+bet : -0.2146


 k-point     1 :       0.2500    0.2500    0.2500
  band No.  band energies     occupation 
      1     -16.9159      2.00000
      2      -9.4063      2.00000
      3      -9.3439      2.00000
      4      -9.1502      2.00000
      5      -0.3016      0.00000
      6       0.5685      0.00000
      7       0.6700      0.00000
      8       0.6931      0.00000

 k-point     2 :      -0.2500    0.2500    0.2500
  band No.  band energies     occupation 
      1     -16.9160      2.00000
      2      -9.4063      2.00000
      3      -9.3441      2.00000
      4      -9.1503      2.00000
      5      -0.3083      0.00000
      6       0.5675      0.00000
      7       0.6873      0.00000
      8       0.7185      0.00000

 k-point     3 :       0.2500   -0.2500    0.2500
  band No.  band energies     occupation 
      1     -16.9159      2.00000
      2      -9.4064      2.00000
      3      -9.3440      2.00000
      4      -9.1503      2.00000
      5      -0.3057      0.00000
      6       0.5720      0.00000
      7       0.6812      0.00000
      8       0.7046      0.00000

 k-point     4 :      -0.2500   -0.2500    0.2500
  band No.  band energies     occupation 
      1     -16.9160      2.00000
      2      -9.4065      2.00000
      3      -9.3440      2.00000
      4      -9.1503      2.00000
      5      -0.3114      0.00000
      6       0.5807      0.00000
      7       0.6910      0.00000
      8       0.7273      0.00000


--------------------------------------------------------------------------------------------------------


 soft charge-density along one line, spin component           1
         0         1         2         3         4         5         6         7         8         9
 total charge-density along one line
 
 pseudopotential strength for first ion, spin component:           1
 -2.341  -4.035  -0.001  -0.001   0.001
 -4.035  -6.867  -0.003  -0.004   0.002
 -0.001  -0.003  -0.337   0.002  -0.001
 -0.001  -0.004   0.002  -0.335  -0.001
  0.001   0.002  -0.001  -0.001  -0.338
 total augmentation occupancy for first ion, spin component:           1
  3.580  -0.643   0.244   0.338  -0.145
 -0.643   0.130  -0.045  -0.063   0.027
  0.244  -0.045   0.023   0.019  -0.008
  0.338  -0.063   0.019   0.036  -0.011
 -0.145   0.027  -0.008  -0.011   0.014


------------------------ aborting loop because EDIFF is reached ----------------------------------------


    CHARGE:  cpu time    0.0140: real time    0.0140
    FORLOC:  cpu time    0.0092: real time    0.0092
    FORNL :  cpu time    0.0168: real time    0.0168
    STRESS:  cpu time    0.1326: real time    0.1326
    FORCOR:  cpu time    0.1060: real time    0.1060
    FORHAR:  cpu time    0.0335: real time    0.0335
    MIXING:  cpu time    0.0066: real time    0.0066
    OFIELD:  cpu time    0.0000: real time    0.0000

  FORCE on cell =-STRESS in cart. coord.  units (eV):
  Direction    XX          YY          ZZ          XY          YZ          ZX
  --------------------------------------------------------------------------------------
  Alpha Z     0.24675     0.24675     0.24675
  Ewald      42.70699    42.58595    43.74677    -1.04325    -1.50639    -2.39771
  Hartree    95.54116    93.14153    96.03177    -0.16268    -0.61706    -0.98033
  E(xc)     -27.26945   -27.25037   -27.27350    -0.00290    -0.00628    -0.01052
  Local    -197.22780  -194.16545  -198.48533     0.91907     1.89975     3.03318
  n-local   -16.01424   -15.97137   -16.04495     0.02849     0.00136    -0.00535
  augment     0.11582     0.11210     0.11236     0.00265     0.00160     0.00244
  Kinetic   101.74330   100.73343   101.92058     0.10432     0.29198     0.51655
  Fock        0.00000     0.00000     0.00000     0.00000     0.00000     0.00000
  -------------------------------------------------------------------------------------
  Total      -0.15748    -0.56744     0.25446    -0.15430     0.06495     0.15828
  in kB      -0.25699    -0.92601     0.41526    -0.25180     0.10600     0.25830
  external pressure =       -0.26 kB  Pullay stress =        0.00 kB

  kinetic pressure (ideal gas correction) =      0.00 kB
  total pressure  =     -0.26 kB
  Total+kin.    -0.257      -0.926       0.415      -0.252       0.106       0.258

 VOLUME and BASIS-vectors are now :
 -----------------------------------------------------------------------------
  energy-cutoff  :      400.00
  volume of cell :      981.78
      direct lattice vectors                 reciprocal lattice vectors
     9.872163278  0.000000000  0.000000000     0.101294921  0.000089040  0.003080868
    -0.008913761 10.140600457  0.000000000     0.000000000  0.098613490  0.001794139
    -0.298123214 -0.178426125  9.807057553     0.000000000  0.000000000  0.101967384

  length of vectors
     9.872163278 10.140604375  9.813210035     0.101341801  0.098629809  0.101967384


 FORCES acting on ions
    electron-ion (+dipol)            ewald-force                    non-local-force                 convergence-correction
 -----------------------------------------------------------------------------------------------
   -.176E+02 0.294E+02 0.409E+02   0.195E+02 -.326E+02 -.455E+02   -.186E+01 0.313E+01 0.431E+01   0.280E-05 -.198E-04 -.115E-04
   0.526E+02 -.650E+01 0.316E+01   -.582E+02 0.716E+01 -.358E+01   0.549E+01 -.680E+00 0.303E+00   -.139E-04 0.197E-05 -.212E-05
   -.226E+02 -.475E+02 0.116E+01   0.249E+02 0.521E+02 -.119E+01   -.229E+01 -.488E+01 0.143E+00   0.671E-05 0.295E-04 0.172E-05
   -.108E+02 0.261E+02 -.453E+02   0.121E+02 -.290E+02 0.506E+02   -.111E+01 0.281E+01 -.480E+01   0.357E-05 -.153E-04 0.122E-04
   -.157E+01 -.200E+01 0.239E+00   0.167E+01 0.233E+01 -.298E+00   -.225E+00 0.104E+00 -.236E-01   -.107E-04 -.328E-05 -.437E-06
 -----------------------------------------------------------------------------------------------
   -.872E-02 -.475E+00 0.729E-01   0.000E+00 -.355E-14 -.711E-14   0.822E-02 0.474E+00 -.728E-01   -.114E-04 -.691E-05 -.209E-06
 
 
 POSITION                                       TOTAL-FORCE (eV/Angst)
 -----------------------------------------------------------------------------------
      5.19576      4.05731      3.53148         0.053325     -0.112203     -0.315785
      3.75562      4.78990      4.30034        -0.148694     -0.018648     -0.120842
      5.31219      5.65461      4.34025         0.006983     -0.271777      0.109887
      5.05611      4.12681      5.28572         0.210917     -0.038352      0.408818
      4.83896      4.65755      4.36482        -0.123049      0.440704     -0.081973
 -----------------------------------------------------------------------------------
    total drift:                               -0.000518     -0.000276      0.000104


--------------------------------------------------------------------------------------------------------



  FREE ENERGIE OF THE ION-ELECTRON SYSTEM (eV)
  ---------------------------------------------------
  free  energy   TOTEN  =       -24.01828354 eV

  energy  without entropy=      -24.01828354  energy(sigma->0) =      -24.01828354
 


--------------------------------------------------------------------------------------------------------


    POTLOK:  cpu time    0.1092: real time    0.1092


--------------------------------------------------------------------------------------------------------


           RANDOM_SEED =         172260481                0                0
           RANDOM_SEED =         172260481               30                0
   IONSTEP:  cpu time    0.0022: real time    0.0022

  ENERGY OF THE ELECTRON-ION-THERMOSTAT SYSTEM (eV)
  ---------------------------------------------------
% ion-electron   TOTEN  =       -24.018284  see above
  kinetic energy EKIN   =         0.000140
  kin. lattice  EKIN_LAT=         0.000000  (temperature    0.27 K)
  nose potential ES     =         0.000000
  nose kinetic   EPS    =         0.000000
  ---------------------------------------------------
  total energy   ETOTAL =       -24.018144 eV

  maximum distance moved by ions :      0.11E-03

    WAVPRE:  cpu time    0.0323: real time    0.0323
    FEWALD:  cpu time    0.0003: real time    0.0003
    ORTHCH:  cpu time    0.0077: real time    0.0078
     LOOP+:  cpu time    5.7667: real time    5.7701


--------------------------------------- Iteration      2(   1)  ---------------------------------------


    POTLOK:  cpu time    0.1089: real time    0.1089
    SETDIJ:  cpu time    0.0015: real time    0.0015
     EDDAV:  cpu time    0.1257: real time    0.1257
       DOS:  cpu time    0.0002: real time    0.0002
    CHARGE:  cpu time    0.0136: real time    0.0136
    MIXING:  cpu time    0.0044: real time    0.0044
    --------------------------------------------
      LOOP:  cpu time    0.2543: real time    0.2543

 eigenvalue-minimisations  :    64
 total energy-change (2. order) :-0.1090645E-02  (-0.1168736E-03)
 number of electron       8.0000002 magnetization 
 augmentation part        0.1864282 magnetization 

 Broyden mixing:
  rms(total) = 0.14888E-02    rms(broyden)= 0.14876E-02
  rms(prec ) = 0.18412E-02
  weight for this iteration     100.00

 Free energy of the ion-electron system (eV)
  ---------------------------------------------------
  alpha Z        PSCENC =         0.24674620
  Ewald energy   TEWEN  =       128.94790263
  -Hartree energ DENC   =      -284.66322326
  -exchange      EXHF   =         0.00000000
  -V(xc)+E(xc)   XCENC  =        24.78911519
  PAW double counting   =       473.41881407     -474.21009164
  entropy T*S    EENTRO =        -0.00000000
  eigenvalues    EBANDS =       -89.59039173
  atomic energy  EATOM  =       197.04175453
  Solvation  Ediel_sol  =         0.00000000
  ---------------------------------------------------
  free energy    TOTEN  =       -24.01937401 eV

  energy without entropy =      -24.01937401  energy(sigma->0) =      -24.01937401


--------------------------------------------------------------------------------------------------------




--------------------------------------- Iteration      2(   2)  ---------------------------------------


    POTLOK:  cpu time    0.1094: real time    0.1094
    SETDIJ:  cpu time    0.0014: real time    0.0014
    EDDIAG:  cpu time    0.0273: real time    0.0273
  RMM-DIIS:  cpu time    0.1266: real time    0.1266
    ORTHCH:  cpu time    0.0014: real time    0.0014
       DOS:  cpu time    0.0002: real time    0.0002
    CHARGE:  cpu time    0.0141: real time    0.0141
    MIXING:  cpu time    0.0036: real time    0.0036
    --------------------------------------------
      LOOP:  cpu time    0.2840: real time    0.2840

 eigenvalue-minimisations  :    64
 total energy-change (2. order) : 0.2639479E-05  (-0.3357908E-05)
 number of electron       8.0000002 magnetization 
 augmentation part        0.1864350 magnetization 

 Broyden mixing:
  rms(total) = 0.89994E-03    rms(broyden)= 0.89963E-03
  rms(prec ) = 0.10710E-02
  weight for this iteration     100.00

 eigenvalues of (default mixing * dielectric matrix)
  average eigenvalue GAMMA=   1.8690
  1.8690

 Free energy of the ion-electron system (eV)
  ---------------------------------------------------
  alpha Z        PSCENC =         0.24674620
  Ewald energy   TEWEN  =       128.94790263
  -Hartree energ DENC   =      -284.64491452
  -exchange      EXHF   =         0.00000000
  -V(xc)+E(xc)   XCENC  =        24.78809407
  PAW double counting   =       473.18116266     -473.97223724
  entropy T*S    EENTRO =        -0.00000000
  eigenvalues    EBANDS =       -89.60787970
  atomic energy  EATOM  =       197.04175453
  Solvation  Ediel_sol  =         0.00000000
  ---------------------------------------------------
  free energy    TOTEN  =       -24.01937137 eV

  energy without entropy =      -24.01937137  energy(sigma->0) =      -24.01937137


--------------------------------------------------------------------------------------------------------




--------------------------------------- Iteration      2(   3)  ---------------------------------------


    POTLOK:  cpu time    0.1067: real time    0.1067
    SETDIJ:  cpu time    0.0014: real time    0.0014
    EDDIAG:  cpu time    0.0277: real time    0.0277
  RMM-DIIS:  cpu time    0.1248: real time    0.1249
    ORTHCH:  cpu time    0.0015: real time    0.0015
       DOS:  cpu time    0.0002: real time    0.0002
    CHARGE:  cpu time    0.0142: real time    0.0142
    MIXING:  cpu time    0.0038: real time    0.0038
    --------------------------------------------
      LOOP:  cpu time    0.2804: real time    0.2804

 eigenvalue-minimisations  :    64
 total energy-change (2. order) : 0.3809667E-06  (-0.1011178E-05)
 number of electron       8.0000002 magnetization 
 augmentation part        0.1864563 magnetization 

 Broyden mixing:
  rms(total) = 0.30051E-03    rms(broyden)= 0.30027E-03
  rms(prec ) = 0.36378E-03
  weight for this iteration     100.00

 eigenvalues of (default mixing * dielectric matrix)
  average eigenvalue GAMMA=   1.4939
  1.2401  1.7478

 Free energy of the ion-electron system (eV)
  ---------------------------------------------------
  alpha Z        PSCENC =         0.24674620
  Ewald energy   TEWEN  =       128.94790263
  -Hartree energ DENC   =      -284.63071575
  -exchange      EXHF   =         0.00000000
  -V(xc)+E(xc)   XCENC  =        24.78730808
  PAW double counting   =       472.93619178     -473.72707851
  entropy T*S    EENTRO =        -0.00000000
  eigenvalues    EBANDS =       -89.62147994
  atomic energy  EATOM  =       197.04175453
  Solvation  Ediel_sol  =         0.00000000
  ---------------------------------------------------
  free energy    TOTEN  =       -24.01937098 eV

  energy without entropy =      -24.01937098  energy(sigma->0) =      -24.01937098


--------------------------------------------------------------------------------------------------------




--------------------------------------- Iteration      2(   4)  ---------------------------------------


    POTLOK:  cpu time    0.1075: real time    0.1075
    SETDIJ:  cpu time    0.0014: real time    0.0014
    EDDIAG:  cpu time    0.0281: real time    0.0281
  RMM-DIIS:  cpu time    0.1011: real time    0.1011
    ORTHCH:  cpu time    0.0014: real time    0.0014
       DOS:  cpu time    0.0002: real time    0.0002
    --------------------------------------------
      LOOP:  cpu time    0.2397: real time    0.2398

 eigenvalue-minimisations  :    48
 total energy-change (2. order) : 0.8712516E-07  (-0.3119084E-07)
 number of electron       8.0000002 magnetization 
 augmentation part        0.1864563 magnetization 

 Free energy of the ion-electron system (eV)
  ---------------------------------------------------
  alpha Z        PSCENC =         0.24674620
  Ewald energy   TEWEN  =       128.94790263
  -Hartree energ DENC   =      -284.63504739
  -exchange      EXHF   =         0.00000000
  -V(xc)+E(xc)   XCENC  =        24.78750260
  PAW double counting   =       472.91444487     -473.70538625
  entropy T*S    EENTRO =        -0.00000000
  eigenvalues    EBANDS =       -89.61728810
  atomic energy  EATOM  =       197.04175453
  Solvation  Ediel_sol  =         0.00000000
  ---------------------------------------------------
  free energy    TOTEN  =       -24.01937090 eV

  energy without entropy =      -24.01937090  energy(sigma->0) =      -24.01937090


--------------------------------------------------------------------------------------------------------




 average (electrostatic) potential at core
  the test charge radii are     0.5201  0.6991
  (the norm of the test charge is              1.0000)
       1 -41.5542       2 -41.4943       3 -41.4490       4 -41.5716       5 -57.9331
 
 
 
 E-fermi :  -8.2334     XC(G=0):  -0.6973     alpha+bet : -0.2146


 k-point     1 :       0.2500    0.2500    0.2500
  band No.  band energies     occupation 
      1     -16.9127      2.00000
      2      -9.4035      2.00000
      3      -9.3401      2.00000
      4      -9.1520      2.00000
      5      -0.2978      0.00000
      6       0.5802      0.00000
      7       0.6764      0.00000
      8       0.7026      0.00000

 k-point     2 :      -0.2500    0.2500    0.2500
  band No.  band energies     occupation 
      1     -16.9127      2.00000
      2      -9.4036      2.00000
      3      -9.3403      2.00000
      4      -9.1521      2.00000
      5      -0.3046      0.00000
      6       0.5821      0.00000
      7       0.6919      0.00000
      8       0.7270      0.00000

 k-point     3 :       0.2500   -0.2500    0.2500
  band No.  band energies     occupation 
      1     -16.9127      2.00000
      2      -9.4036      2.00000
      3      -9.3402      2.00000
      4      -9.1521      2.00000
      5      -0.3018      0.00000
      6       0.5829      0.00000
      7       0.6875      0.00000
      8       0.7144      0.00000

 k-point     4 :      -0.2500   -0.2500    0.2500
  band No.  band energies     occupation 
      1     -16.9127      2.00000
      2      -9.4037      2.00000
      3      -9.3403      2.00000
      4      -9.1522      2.00000
      5      -0.3077      0.00000
      6       0.5953      0.00000
      7       0.6969      0.00000
      8       0.7342      0.00000


--------------------------------------------------------------------------------------------------------


 soft charge-density along one line, spin component           1
         0         1         2         3         4         5         6         7         8         9
 total charge-density along one line
 
 pseudopotential strength for first ion, spin component:           1
 -2.341  -4.035  -0.001  -0.001   0.001
 -4.035  -6.867  -0.003  -0.004   0.002
 -0.001  -0.003  -0.337   0.002  -0.001
 -0.001  -0.004   0.002  -0.335  -0.001
  0.001   0.002  -0.001  -0.001  -0.338
 total augmentation occupancy for first ion, spin component:           1
  3.577  -0.643   0.244   0.337  -0.145
 -0.643   0.130  -0.045  -0.062   0.027
  0.244  -0.045   0.023   0.019  -0.008
  0.337  -0.062   0.019   0.036  -0.011
 -0.145   0.027  -0.008  -0.011   0.014


------------------------ aborting loop because EDIFF is reached ----------------------------------------


    CHARGE:  cpu time    0.0137: real time    0.0137
    FORLOC:  cpu time    0.0093: real time    0.0093
    FORNL :  cpu time    0.0168: real time    0.0168
    STRESS:  cpu time    0.1328: real time    0.1328
    FORCOR:  cpu time    0.1072: real time    0.1072
    FORHAR:  cpu time    0.0351: real time    0.0351
    MIXING:  cpu time    0.0052: real time    0.0052
    OFIELD:  cpu time    0.0000: real time    0.0000

  FORCE on cell =-STRESS in cart. coord.  units (eV):
  Direction    XX          YY          ZZ          XY          YZ          ZX
  --------------------------------------------------------------------------------------
  Alpha Z     0.24675     0.24675     0.24675
  Ewald      42.70206    42.53821    43.70760    -0.99725    -1.47850    -2.35840
  Hartree    95.51742    93.09616    96.02379    -0.16350    -0.61123    -0.96950
  E(xc)     -27.26495   -27.24628   -27.26872    -0.00292    -0.00616    -0.01030
  Local    -197.19614  -194.07067  -198.45913     0.89196     1.87247     2.99019
  n-local   -16.00516   -15.96412   -16.03249     0.02638     0.00111    -0.00523
  augment     0.11591     0.11217     0.11275     0.00246     0.00154     0.00239
  Kinetic   101.71416   100.72483   101.87741     0.10629     0.28672     0.50598
  Fock        0.00000     0.00000     0.00000     0.00000     0.00000     0.00000
  -------------------------------------------------------------------------------------
  Total      -0.16996    -0.56293     0.20796    -0.13658     0.06594     0.15514
  in kB      -0.27735    -0.91865     0.33938    -0.22289     0.10761     0.25317
  external pressure =       -0.29 kB  Pullay stress =        0.00 kB

  kinetic pressure (ideal gas correction) =      0.00 kB
  total pressure  =     -0.28 kB
  Total+kin.    -0.277      -0.918       0.341      -0.223       0.108       0.254

 VOLUME and BASIS-vectors are now :
 -----------------------------------------------------------------------------
  energy-cutoff  :      400.00
[...]
 -----------------------------------------------------------------------------------------------
   0.612E-01 0.414E+00 -.664E-01   0.533E-14 0.000E+00 -.708E-14   -.609E-01 -.413E+00 0.661E-01   -.300E-03 -.673E-03 0.842E-04
 
 
 POSITION                                       TOTAL-FORCE (eV/Angst)
 -----------------------------------------------------------------------------------
      5.19732      4.05307      3.51370        -0.088890      0.153716      0.169175
      3.74751      4.78788      4.29128         0.099565     -0.029135     -0.031434
      5.31557      5.63927      4.34863         0.136310      0.152053      0.036129
      5.07035      4.12894      5.30798        -0.011540      0.202156     -0.246681
      4.83803      4.65917      4.36450        -0.135506     -0.478156      0.072611
 -----------------------------------------------------------------------------------
    total drift:                               -0.000062      0.000634     -0.000200


--------------------------------------------------------------------------------------------------------



  FREE ENERGIE OF THE ION-ELECTRON SYSTEM (eV)
  ---------------------------------------------------
  free  energy   TOTEN  =       -24.02545330 eV

  energy  without entropy=      -24.02545330  energy(sigma->0) =      -24.02545330
 
 d Force =-0.8197533E-03[-0.114E-02,-0.498E-03]  d Energy =-0.8196148E-03-0.139E-06
 d Force = 0.2376577E+00[ 0.238E+00, 0.238E+00]  d Ewald  = 0.2376579E+00-0.183E-06


--------------------------------------------------------------------------------------------------------


    POTLOK:  cpu time    0.1131: real time    0.1131


--------------------------------------------------------------------------------------------------------


           RANDOM_SEED =         172260481               30                0
   IONSTEP:  cpu time    0.0001: real time    0.0001

  ENERGY OF THE ELECTRON-ION-THERMOSTAT SYSTEM (eV)
  ---------------------------------------------------
% ion-electron   TOTEN  =       -24.025453  see above
  kinetic energy EKIN   =         0.007251
  kin. lattice  EKIN_LAT=         0.000000  (temperature   14.02 K)
  nose potential ES     =         0.000000
  nose kinetic   EPS    =         0.000000
  ---------------------------------------------------
  total energy   ETOTAL =       -24.018203 eV

  maximum distance moved by ions :      0.40E-03

    WAVPRE:  cpu time    0.0372: real time    0.0372
    FEWALD:  cpu time    0.0003: real time    0.0003
    ORTHCH:  cpu time    0.0075: real time    0.0075
 Prediction of Wavefunctions ALPHA= 2.167 BETA=-1.202
     LOOP+:  cpu time    1.5049: real time    1.5051


--------------------------------------- Iteration     10(   1)  ---------------------------------------


    POTLOK:  cpu time    0.1077: real time    0.1078
    SETDIJ:  cpu time    0.0014: real time    0.0014
     EDDAV:  cpu time    0.1267: real time    0.1273
       DOS:  cpu time    0.0002: real time    0.0002
    CHARGE:  cpu time    0.0133: real time    0.0133
    MIXING:  cpu time    0.0036: real time    0.0036
    --------------------------------------------
      LOOP:  cpu time    0.2530: real time    0.2536

 eigenvalue-minimisations  :    64
 total energy-change (2. order) : 0.7839206E-03  (-0.1132974E-04)
 number of electron       8.0000000 magnetization 
 augmentation part        0.1840349 magnetization 

 Broyden mixing:
  rms(total) = 0.10535E-03    rms(broyden)= 0.10530E-03
  rms(prec ) = 0.14354E-03
  weight for this iteration     100.00

 Free energy of the ion-electron system (eV)
  ---------------------------------------------------
  alpha Z        PSCENC =         0.24674620
  Ewald energy   TEWEN  =       126.91988795
  -Hartree energ DENC   =      -282.86039738
  -exchange      EXHF   =         0.00000000
  -V(xc)+E(xc)   XCENC  =        24.69395500
  PAW double counting   =       460.71266322     -461.49654421
  entropy T*S    EENTRO =        -0.00000000
  eigenvalues    EBANDS =       -89.28273371
  atomic energy  EATOM  =       197.04175453
  Solvation  Ediel_sol  =         0.00000000
  ---------------------------------------------------
  free energy    TOTEN  =       -24.02466840 eV

  energy without entropy =      -24.02466840  energy(sigma->0) =      -24.02466840


--------------------------------------------------------------------------------------------------------




--------------------------------------- Iteration     10(   2)  ---------------------------------------


    POTLOK:  cpu time    0.1062: real time    0.1062
    SETDIJ:  cpu time    0.0015: real time    0.0015
    EDDIAG:  cpu time    0.0272: real time    0.0272
  RMM-DIIS:  cpu time    0.1003: real time    0.1003
    ORTHCH:  cpu time    0.0017: real time    0.0017
       DOS:  cpu time    0.0002: real time    0.0002
    CHARGE:  cpu time    0.0137: real time    0.0137
    MIXING:  cpu time    0.0037: real time    0.0037
    --------------------------------------------
      LOOP:  cpu time    0.2544: real time    0.2544

 eigenvalue-minimisations  :    48
 total energy-change (2. order) :-0.1064097E-05  (-0.1429217E-06)
 number of electron       8.0000000 magnetization 
 augmentation part        0.1840359 magnetization 

 Broyden mixing:
  rms(total) = 0.85470E-04    rms(broyden)= 0.85426E-04
  rms(prec ) = 0.11892E-03
  weight for this iteration     100.00

 eigenvalues of (default mixing * dielectric matrix)
  average eigenvalue GAMMA=   1.0438
  1.0438

 Free energy of the ion-electron system (eV)
  ---------------------------------------------------
  alpha Z        PSCENC =         0.24674620
  Ewald energy   TEWEN  =       126.91988795
  -Hartree energ DENC   =      -282.85858008
  -exchange      EXHF   =         0.00000000
  -V(xc)+E(xc)   XCENC  =        24.69385621
  PAW double counting   =       460.71106290     -461.49491879
  entropy T*S    EENTRO =        -0.00000000
  eigenvalues    EBANDS =       -89.28447839
  atomic energy  EATOM  =       197.04175453
  Solvation  Ediel_sol  =         0.00000000
  ---------------------------------------------------
  free energy    TOTEN  =       -24.02466946 eV

  energy without entropy =      -24.02466946  energy(sigma->0) =      -24.02466946


--------------------------------------------------------------------------------------------------------




--------------------------------------- Iteration     10(   3)  ---------------------------------------


    POTLOK:  cpu time    0.1069: real time    0.1069
    SETDIJ:  cpu time    0.0014: real time    0.0014
    EDDIAG:  cpu time    0.0275: real time    0.0275
  RMM-DIIS:  cpu time    0.1001: real time    0.1001
    ORTHCH:  cpu time    0.0014: real time    0.0014
       DOS:  cpu time    0.0002: real time    0.0002
    CHARGE:  cpu time    0.0137: real time    0.0137
    MIXING:  cpu time    0.0039: real time    0.0039
    --------------------------------------------
      LOOP:  cpu time    0.2552: real time    0.2552

 eigenvalue-minimisations  :    48
 total energy-change (2. order) :-0.9136124E-06  (-0.2233795E-07)
 number of electron       8.0000000 magnetization 
 augmentation part        0.1840378 magnetization 

 Broyden mixing:
  rms(total) = 0.36335E-04    rms(broyden)= 0.36311E-04
  rms(prec ) = 0.54069E-04
  weight for this iteration     100.00

 eigenvalues of (default mixing * dielectric matrix)
  average eigenvalue GAMMA=   1.3873
  1.3873  1.3873

 Free energy of the ion-electron system (eV)
  ---------------------------------------------------
  alpha Z        PSCENC =         0.24674620
  Ewald energy   TEWEN  =       126.91988795
  -Hartree energ DENC   =      -282.85695004
  -exchange      EXHF   =         0.00000000
  -V(xc)+E(xc)   XCENC  =        24.69377498
  PAW double counting   =       460.70576725     -461.48960251
  entropy T*S    EENTRO =        -0.00000000
  eigenvalues    EBANDS =       -89.28604874
  atomic energy  EATOM  =       197.04175453
  Solvation  Ediel_sol  =         0.00000000
  ---------------------------------------------------
  free energy    TOTEN  =       -24.02467038 eV

  energy without entropy =      -24.02467038  energy(sigma->0) =      -24.02467038


--------------------------------------------------------------------------------------------------------




--------------------------------------- Iteration     10(   4)  ---------------------------------------


    POTLOK:  cpu time    0.1077: real time    0.1078
    SETDIJ:  cpu time    0.0015: real time    0.0015
    EDDIAG:  cpu time    0.0273: real time    0.0273
  RMM-DIIS:  cpu time    0.0994: real time    0.0994
    ORTHCH:  cpu time    0.0015: real time    0.0015
       DOS:  cpu time    0.0002: real time    0.0002
    --------------------------------------------
      LOOP:  cpu time    0.2376: real time    0.2377

 eigenvalue-minimisations  :    45
 total energy-change (2. order) :-0.8106661E-06  (-0.7753056E-08)
 number of electron       8.0000000 magnetization 
 augmentation part        0.1840378 magnetization 

 Free energy of the ion-electron system (eV)
  ---------------------------------------------------
  alpha Z        PSCENC =         0.24674620
  Ewald energy   TEWEN  =       126.91988795
  -Hartree energ DENC   =      -282.85643324
  -exchange      EXHF   =         0.00000000
  -V(xc)+E(xc)   XCENC  =        24.69375051
  PAW double counting   =       460.70252539     -461.48635428
  entropy T*S    EENTRO =        -0.00000000
  eigenvalues    EBANDS =       -89.28654826
  atomic energy  EATOM  =       197.04175453
  Solvation  Ediel_sol  =         0.00000000
  ---------------------------------------------------
  free energy    TOTEN  =       -24.02467119 eV

  energy without entropy =      -24.02467119  energy(sigma->0) =      -24.02467119


--------------------------------------------------------------------------------------------------------




 average (electrostatic) potential at core
  the test charge radii are     0.5201  0.6991
  (the norm of the test charge is              1.0000)
       1 -41.4250       2 -41.4560       3 -41.5619       4 -41.4046       5 -57.9857
 
 
 
 E-fermi :  -8.2768     XC(G=0):  -0.7176     alpha+bet : -0.2146


 k-point     1 :       0.2500    0.2500    0.2500
  band No.  band energies     occupation 
      1     -16.8455      2.00000
      2      -9.3327      2.00000
      3      -9.2535      2.00000
      4      -9.2112      2.00000
      5      -0.3131      0.00000
      6       0.5507      0.00000
      7       0.6666      0.00000
      8       0.6993      0.00000

 k-point     2 :      -0.2500    0.2500    0.2500
  band No.  band energies     occupation 
      1     -16.8456      2.00000
      2      -9.3327      2.00000
      3      -9.2538      2.00000
      4      -9.2113      2.00000
      5      -0.3195      0.00000
      6       0.5532      0.00000
      7       0.6888      0.00000
      8       0.7127      0.00000

 k-point     3 :       0.2500   -0.2500    0.2500
  band No.  band energies     occupation 
      1     -16.8455      2.00000
      2      -9.3328      2.00000
      3      -9.2537      2.00000
      4      -9.2113      2.00000
      5      -0.3167      0.00000
      6       0.5557      0.00000
      7       0.6786      0.00000
      8       0.7035      0.00000

 k-point     4 :      -0.2500   -0.2500    0.2500
  band No.  band energies     occupation 
      1     -16.8456      2.00000
      2      -9.3329      2.00000
      3      -9.2537      2.00000
      4      -9.2113      2.00000
      5      -0.3231      0.00000
      6       0.5709      0.00000
      7       0.6886      0.00000
      8       0.7231      0.00000


--------------------------------------------------------------------------------------------------------


 soft charge-density along one line, spin component           1
         0         1         2         3         4         5         6         7         8         9
 total charge-density along one line
 
 pseudopotential strength for first ion, spin component:           1
 -2.340  -4.033  -0.001  -0.001   0.001
 -4.033  -6.862  -0.003  -0.004   0.002
 -0.001  -0.003  -0.338   0.002  -0.001
 -0.001  -0.004   0.002  -0.336  -0.001
  0.001   0.002  -0.001  -0.001  -0.339
 total augmentation occupancy for first ion, spin component:           1
  3.511  -0.633   0.230   0.324  -0.136
 -0.633   0.128  -0.043  -0.060   0.025
  0.230  -0.043   0.021   0.018  -0.007
  0.324  -0.060   0.018   0.034  -0.010
 -0.136   0.025  -0.007  -0.010   0.013


------------------------ aborting loop because EDIFF is reached ----------------------------------------


    CHARGE:  cpu time    0.0135: real time    0.0135
    FORLOC:  cpu time    0.0093: real time    0.0094
    FORNL :  cpu time    0.0168: real time    0.0168
    STRESS:  cpu time    0.1325: real time    0.1325
    FORCOR:  cpu time    0.1075: real time    0.1075
    FORHAR:  cpu time    0.0350: real time    0.0350
    MIXING:  cpu time    0.0044: real time    0.0044
    OFIELD:  cpu time    0.0000: real time    0.0000

  FORCE on cell =-STRESS in cart. coord.  units (eV):
  Direction    XX          YY          ZZ          XY          YZ          ZX
  --------------------------------------------------------------------------------------
  Alpha Z     0.24675     0.24675     0.24675
  Ewald      42.87280    40.76451    43.28255     0.28297    -0.50845    -0.91980
  Hartree    95.04653    91.87252    95.93771    -0.09790    -0.37975    -0.56935
  E(xc)     -27.16128   -27.15634   -27.15863    -0.00163    -0.00152    -0.00241
  Local    -196.78421  -191.15071  -198.32645    -0.01034     0.86954     1.40584
  n-local   -15.79819   -15.80444   -15.75671    -0.02046    -0.00346    -0.00065
  augment     0.11831     0.11520     0.12065    -0.00175     0.00006     0.00063
  Kinetic   100.96804   100.69943   100.81189     0.07484     0.07249     0.11854
  Fock        0.00000     0.00000     0.00000     0.00000     0.00000     0.00000
  -------------------------------------------------------------------------------------
  Total      -0.49125    -0.41309    -0.84225     0.22573     0.04890     0.03280
  in kB      -0.80168    -0.67412    -1.37448     0.36837     0.07980     0.05353
  external pressure =       -0.95 kB  Pullay stress =        0.00 kB

  kinetic pressure (ideal gas correction) =      0.01 kB
  total pressure  =     -0.94 kB
  Total+kin.    -0.795      -0.670      -1.363       0.370       0.081       0.061

 VOLUME and BASIS-vectors are now :
 -----------------------------------------------------------------------------
  energy-cutoff  :      400.00
  volume of cell :      981.78
      direct lattice vectors                 reciprocal lattice vectors
     9.872163278  0.000000000  0.000000000     0.101294921  0.000089040  0.003080868
    -0.008913761 10.140600457  0.000000000     0.000000000  0.098613490  0.001794139
    -0.298123214 -0.178426125  9.807057553     0.000000000  0.000000000  0.101967384

  length of vectors
     9.872163278 10.140604375  9.813210035     0.101341801  0.098629809  0.101967384


 FORCES acting on ions
    electron-ion (+dipol)            ewald-force                    non-local-force                 convergence-correction
 -----------------------------------------------------------------------------------------------
   -.170E+02 0.287E+02 0.403E+02   0.187E+02 -.315E+02 -.443E+02   -.174E+01 0.294E+01 0.413E+01   0.187E-04 0.172E-04 -.382E-05
   0.521E+02 -.615E+01 0.360E+01   -.573E+02 0.676E+01 -.398E+01   0.539E+01 -.633E+00 0.365E+00   -.547E-05 0.375E-04 0.181E-05
   -.234E+02 -.477E+02 0.676E+00   0.260E+02 0.529E+02 -.732E+00   -.246E+01 -.505E+01 0.776E-01   0.191E-04 0.477E-04 0.129E-04
   -.111E+02 0.249E+02 -.445E+02   0.122E+02 -.272E+02 0.488E+02   -.112E+01 0.255E+01 -.454E+01   0.226E-04 0.201E-04 0.175E-04
   -.474E+00 0.729E+00 -.155E+00   0.473E+00 -.978E+00 0.196E+00   -.126E+00 -.292E+00 0.417E-01   0.146E-03 0.289E-03 0.416E-04
 -----------------------------------------------------------------------------------------------
   0.642E-01 0.479E+00 -.760E-01   -.178E-14 -.355E-14 0.713E-14   -.647E-01 -.479E+00 0.757E-01   0.201E-03 0.412E-03 0.699E-04
 
 
 POSITION                                       TOTAL-FORCE (eV/Angst)
 -----------------------------------------------------------------------------------
      5.19701      4.05331      3.51158        -0.094634      0.170755      0.213360
      3.74667      4.78732      4.28943         0.123156     -0.025499     -0.014988
      5.31707      5.63747      4.35038         0.136896      0.187678      0.021671
      5.07285      4.13066      5.31039        -0.039114      0.207563     -0.302599
      4.83780      4.65920      4.36448        -0.126619     -0.540631      0.082347
 -----------------------------------------------------------------------------------
    total drift:                               -0.000315     -0.000133     -0.000209


--------------------------------------------------------------------------------------------------------



  FREE ENERGIE OF THE ION-ELECTRON SYSTEM (eV)
  ---------------------------------------------------
  free  energy   TOTEN  =       -24.02467119 eV

  energy  without entropy=      -24.02467119  energy(sigma->0) =      -24.02467119
 
 d Force =-0.7809837E-03[-0.994E-03,-0.568E-03]  d Energy =-0.7821073E-03 0.112E-05
 d Force = 0.1750703E+00[ 0.175E+00, 0.175E+00]  d Ewald  = 0.1750707E+00-0.481E-06


--------------------------------------------------------------------------------------------------------


    POTLOK:  cpu time    0.1101: real time    0.1101


--------------------------------------------------------------------------------------------------------


           RANDOM_SEED =         172260481               30                0
   IONSTEP:  cpu time    0.0001: real time    0.0001

  ENERGY OF THE ELECTRON-ION-THERMOSTAT SYSTEM (eV)
  ---------------------------------------------------
% ion-electron   TOTEN  =       -24.024671  see above
  kinetic energy EKIN   =         0.006494
  kin. lattice  EKIN_LAT=         0.000000  (temperature   12.56 K)
  nose potential ES     =         0.000000
  nose kinetic   EPS    =         0.000000
  ---------------------------------------------------
  total energy   ETOTAL =       -24.018178 eV

  maximum distance moved by ions :      0.37E-03


 mean value of Nose-termostat <S>:     1.000 mean value of <T> :    10.615
 mean temperature <T/S>/<1/S>  :    10.615

    WAVPRE:  cpu time    0.0406: real time    0.0406
    FEWALD:  cpu time    0.0003: real time    0.0003
    ORTHCH:  cpu time    0.0076: real time    0.0076
 Prediction of Wavefunctions ALPHA= 2.095 BETA=-1.121
    POTLOK:  cpu time    0.1073: real time    0.1074
    EDDIAG:  cpu time    0.0280: real time    0.0280
     LOOP+:  cpu time    1.6174: real time    1.6182
    4ORBIT:  cpu time    0.0000: real time    0.0000

 total amount of memory used by VASP MPI-rank0    52373. kBytes
=======================================================================

   base      :      30000. kBytes
   nonl-proj :       2642. kBytes
   fftplans  :       7001. kBytes
   grid      :      11005. kBytes
   one-center:          6. kBytes
   wavefun   :       1719. kBytes
 
  
  
 General timing and accounting informations for this job:
 ========================================================
  
                  Total CPU time used (sec):       21.101
                            User time (sec):       20.029
                          System time (sec):        1.072
                         Elapsed time (sec):       21.356
  
                   Maximum memory used (kb):      168260.
                   Average memory used (kb):           0.
  
                          Minor page faults:       206273
                          Major page faults:            4
                 Voluntary context switches:           94
