 vasp.5.4.4.18Apr17-6-g9f103f2a35 (build Jul 09 2021 13:05:15) complex          
  
 executed on             LinuxIFC date 2021.11.04  19:03:49
 running on   16 total cores
 distrk:  each k-point on   16 cores,    1 groups
 distr:  one band on NCORES_PER_BAND=   4 cores,    4 groups


--------------------------------------------------------------------------------------------------------


 INCAR:
 POTCAR:    PAW_PBE H 15Jun2001                   
 POTCAR:    PAW_PBE C 08Apr2002                   
 POTCAR:    PAW_PBE H 15Jun2001                   
   VRHFIN =H: ultrasoft test                                                    
   LEXCH  = PE                                                                  
   EATOM  =    12.4884 eV,    0.9179 Ry                                         
                                                                                
   TITEL  = PAW_PBE H 15Jun2001                                                 
   LULTRA =        F    use ultrasoft PP ?                                      
   IUNSCR =        0    unscreen: 0-lin 1-nonlin 2-no                           
   RPACOR =    0.000    partial core radius                                     
   POMASS =    1.000; ZVAL   =    1.000    mass and valenz                      
   RCORE  =    1.100    outmost cutoff radius                                   
   RWIGS  =    0.700; RWIGS  =    0.370    wigner-seitz radius (au A)           
   ENMAX  =  250.000; ENMIN  =  200.000 eV                                      
   RCLOC  =    0.701    cutoff for local pot                                    
   LCOR   =        T    correct aug charges                                     
   LPAW   =        T    paw PP                                                  
   EAUG   =  400.000                                                            
   RMAX   =    1.123    core radius for proj-oper                               
   RAUG   =    1.200    factor for augmentation sphere                          
   RDEP   =    1.112    radius for radial grids                                 
   RDEPT  =    0.926    core radius for aug-charge                              
                                                                                
   Atomic configuration                                                         
    2 entries                                                                   
     n  l   j            E        occ.                                          
     1  0  0.50        -6.4927   1.0000                                         
     2  1  0.50        -3.4015   0.0000                                         
   Description                                                                  
     l       E           TYP  RCUT    TYP  RCUT                                 
     0     -6.4927494     23  1.100                                             
     0      6.8029130     23  1.100                                             
     1     -4.0817478     23  1.100                                             
  local pseudopotential read in
  atomic valenz-charges read in
  non local Contribution for L=           0  read in
    real space projection operators read in
  non local Contribution for L=           0  read in
    real space projection operators read in
  non local Contribution for L=           1  read in
    real space projection operators read in
    PAW grid and wavefunctions read in
 
   number of l-projection  operators is LMAX  =           3
   number of lm-projection operators is LMMAX =           5
 
 POTCAR:    PAW_PBE C 08Apr2002                   
   VRHFIN =C: s2p2                                                              
   LEXCH  = PE                                                                  
   EATOM  =   147.1560 eV,   10.8157 Ry                                         
                                                                                
   TITEL  = PAW_PBE C 08Apr2002                                                 
   LULTRA =        F    use ultrasoft PP ?                                      
   IUNSCR =        1    unscreen: 0-lin 1-nonlin 2-no                           
   RPACOR =    1.200    partial core radius                                     
   POMASS =   12.011; ZVAL   =    4.000    mass and valenz                      
   RCORE  =    1.500    outmost cutoff radius                                   
   RWIGS  =    1.630; RWIGS  =    0.863    wigner-seitz radius (au A)           
   ENMAX  =  400.000; ENMIN  =  300.000 eV                                      
   ICORE  =        2    local potential                                         
   LCOR   =        T    correct aug charges                                     
   LPAW   =        T    paw PP                                                  
   EAUG   =  644.873                                                            
   DEXC   =    0.000                                                            
   RMAX   =    1.529    core radius for proj-oper                               
   RAUG   =    1.300    factor for augmentation sphere                          
   RDEP   =    1.501    radius for radial grids                                 
   RDEPT  =    1.300    core radius for aug-charge                              
                                                                                
   Atomic configuration                                                         
    4 entries                                                                   
     n  l   j            E        occ.                                          
     1  0  0.50      -273.3789   2.0000                                         
     2  0  0.50       -13.7508   2.0000                                         
     2  1  0.50        -5.2854   2.0000                                         
     3  2  1.50        -5.4423   0.0000                                         
   Description                                                                  
     l       E           TYP  RCUT    TYP  RCUT                                 
     0    -13.7508458     23  1.200                                             
     0     -8.2022199     23  1.200                                             
     1     -5.2854383     23  1.500                                             
     1     34.0145650     23  1.500                                             
     2     -5.4423304      7  1.500                                             
  local pseudopotential read in
  partial core-charges read in
  partial kinetic energy density read in
  atomic valenz-charges read in
  non local Contribution for L=           0  read in
    real space projection operators read in
  non local Contribution for L=           0  read in
    real space projection operators read in
  non local Contribution for L=           1  read in
    real space projection operators read in
  non local Contribution for L=           1  read in
    real space projection operators read in
    PAW grid and wavefunctions read in
 
   number of l-projection  operators is LMAX  =           4
   number of lm-projection operators is LMMAX =           8
 
  PAW_PBE H 15Jun2001                   :
 energy of atom  1       EATOM=  -12.4884
 kinetic energy error for atom=    0.0098 (will be added to EATOM!!)
  PAW_PBE C 08Apr2002                   :
 energy of atom  2       EATOM= -147.1560
 kinetic energy error for atom=    0.0288 (will be added to EATOM!!)
 
 
 POSCAR:  H  C                                   
  positions in cartesian coordinates
  No initial velocities read in
 exchange correlation table for  LEXCH =        8
   RHO(1)=    0.500       N(1)  =     2000
   RHO(2)=  100.500       N(2)  =     4000
 


--------------------------------------------------------------------------------------------------------


 ion  position               nearest neighbor table
   1  0.538  0.407  0.361-   5 1.11
   2  0.395  0.480  0.439-   5 1.07
   3  0.552  0.566  0.443-   5 1.10
   4  0.528  0.416  0.539-   5 1.12
   5  0.503  0.467  0.445-   2 1.07   3 1.10   1 1.11   4 1.12
 

IMPORTANT INFORMATION: All symmetrisations will be switched off!
NOSYMM: (Re-)initialisation of all symmetry stuff for point group C_1.

 
 

Automatic generation of k-mesh.
 generate k-points for:    2    2    2
Space group operators:
 irot       det(A)        alpha          n_x          n_y          n_z        tau_x        tau_y        tau_z
    1     1.000000     0.000001     1.000000     0.000000     0.000000     0.000000     0.000000     0.000000
 
 Subroutine IBZKPT returns following result:
 ===========================================
 
 Found      4 irreducible k-points:
 
 Following reciprocal coordinates:
            Coordinates               Weight
  0.250000  0.250000  0.250000      2.000000
 -0.250000  0.250000  0.250000      2.000000
  0.250000 -0.250000  0.250000      2.000000
 -0.250000 -0.250000  0.250000      2.000000
 
 Following cartesian coordinates:
            Coordinates               Weight
  0.025571  0.025462  0.023857      2.000000
 -0.025571  0.024101  0.024722      2.000000
  0.025571 -0.024101  0.024380      2.000000
 -0.025571 -0.025462  0.025245      2.000000
 


--------------------------------------------------------------------------------------------------------




 Dimension of arrays:
   k-points           NKPTS =      4   k-points in BZ     NKDIM =      4   number of bands    NBANDS=      8
   number of dos      NEDOS =    301   number of ions     NIONS =      5
   non local maximal  LDIM  =      4   non local SUM 2l+1 LMDIM =      8
   total plane-waves  NPLWV = 313600
   max r-space proj   IRMAX =      1   max aug-charges    IRDMAX=   3884
   dimension x,y,z NGX =    64 NGY =   70 NGZ =   70
   dimension x,y,z NGXF=   128 NGYF=  140 NGZF=  140
   support grid    NGXF=   128 NGYF=  140 NGZF=  140
   ions per type =               4   1
   NGX,Y,Z   is equivalent  to a cutoff of  10.88, 11.53, 11.43 a.u.
   NGXF,Y,Z  is equivalent  to a cutoff of  21.77, 23.06, 22.85 a.u.

 SYSTEM =  unknown system                          
 POSCAR =   H  C                                   

 Startparameter for this run:
   NWRITE =      2    write-flag & timer
   PREC   = a         normal or accurate (medium, high low for compatibility)
   ISTART =      0    job   : 0-new  1-cont  2-samecut
   ICHARG =      2    charge: 1-file 2-atom 10-const
   ISPIN  =      1    spin polarized calculation?
   LNONCOLLINEAR =      F non collinear calculations
   LSORBIT =      F    spin-orbit coupling
   INIWAV =      1    electr: 0-lowe 1-rand  2-diag
   LASPH  =      F    aspherical Exc in radial PAW
   METAGGA=      F    non-selfconsistent MetaGGA calc.

 Electronic Relaxation 1
   ENCUT  =  400.0 eV  29.40 Ry    5.42 a.u.  15.94 16.46 16.61*2*pi/ulx,y,z
   ENINI  =  400.0     initial cutoff
   ENAUG  =  644.9 eV  augmentation charge cutoff
   NELM   =    120;   NELMIN=  4; NELMDL= -5     # of ELM steps 
   EDIFF  = 0.1E-05   stopping-criterion for ELM
   LREAL  =      F    real-space projection
   NLSPLINE    = F    spline interpolate recip. space projectors
   LCOMPAT=      F    compatible to vasp.4.4
   GGA_COMPAT  = T    GGA compatible to vasp.4.4-vasp.4.6
   LMAXPAW     = -100 max onsite density
   LMAXMIX     =    2 max onsite mixed and CHGCAR
   VOSKOWN=      0    Vosko Wilk Nusair interpolation
   ROPT   =    0.00000   0.00000
 Ionic relaxation
   EDIFFG = 0.1E-04   stopping-criterion for IOM
   NSW    =     10    number of steps for IOM
   NBLOCK =      1;   KBLOCK =     10    inner block; outer block 
   IBRION =      0    ionic relax: 0-MD 1-quasi-New 2-CG
   NFREE  =      0    steps in history (QN), initial steepest desc. (CG)
   ISIF   =      2    stress and relaxation
   IWAVPR =     12    prediction:  0-non 1-charg 2-wave 3-comb
   ISYM   =      0    0-nonsym 1-usesym 2-fastsym
   LCORR  =      T    Harris-Foulkes like correction to forces

   POTIM  = 0.5000    time-step for ionic-motion
   TEIN   =    0.0    initial temperature
   TEBEG  =    0.0;   TEEND  =   0.0 temperature during run
   SMASS  =  -3.00    Nose mass-parameter (am)
   estimated Nose-frequenzy (Omega)   =  0.10E-29 period in steps =****** mass=  -0.218E-26a.u.
   SCALEE = 1.0000    scale energy and forces
   NPACO  =    256;   APACO  = 16.0  distance and # of slots for P.C.
   PSTRESS=    0.0 pullay stress

  Mass of Ions in am
   POMASS =   1.00 12.01
  Ionic Valenz
   ZVAL   =   1.00  4.00
  Atomic Wigner-Seitz radii
   RWIGS  =  -1.00 -1.00
  virtual crystal weights 
   VCA    =   1.00  1.00
   NELECT =       8.0000    total number of electrons
   NUPDOWN=      -1.0000    fix difference up-down

 DOS related values:
   EMIN   =  10.00;   EMAX   =-10.00  energy-range for DOS
   EFERMI =   0.00
   ISMEAR =     0;   SIGMA  =   0.20  broadening in eV -4-tet -1-fermi 0-gaus

 Electronic relaxation 2 (details)
   IALGO  =     68    algorithm
   LDIAG  =      T    sub-space diagonalisation (order eigenvalues)
   LSUBROT=      F    optimize rotation matrix (better conditioning)
   TURBO    =      0    0=normal 1=particle mesh
   IRESTART =      0    0=no restart 2=restart with 2 vectors
   NREBOOT  =      0    no. of reboots
   NMIN     =      0    reboot dimension
   EREF     =   0.00    reference energy to select bands
   IMIX   =      4    mixing-type and parameters
     AMIX     =   0.40;   BMIX     =  1.00
     AMIX_MAG =   1.60;   BMIX_MAG =  1.00
     AMIN     =   0.10
     WC   =   100.;   INIMIX=   1;  MIXPRE=   1;  MAXMIX= -45

 Intra band minimization:
   WEIMIN = 0.0010     energy-eigenvalue tresh-hold
   EBREAK =  0.31E-07  absolut break condition
   DEPER  =   0.30     relativ break condition  

   TIME   =   0.40     timestep for ELM

  volume/ion in A,a.u.               =     200.87      1355.54
  Fermi-wavevector in a.u.,A,eV,Ry     =   0.326946  0.617839  1.454381  0.106894
  Thomas-Fermi vector in A             =   1.219248
 
 Write flags
   LWAVE        =      F    write WAVECAR
   LDOWNSAMPLE  =      F    k-point downsampling of WAVECAR
   LCHARG       =      F    write CHGCAR
   LVTOT        =      F    write LOCPOT, total local potential
   LVHAR        =      F    write LOCPOT, Hartree potential only
   LELF         =      F    write electronic localiz. function (ELF)
   LORBIT       =      0    0 simple, 1 ext, 2 COOP (PROOUT), +10 PAW based schemes


 Dipole corrections
   LMONO  =      F    monopole corrections only (constant potential shift)
   LDIPOL =      F    correct potential (dipole corrections)
   IDIPOL =      0    1-x, 2-y, 3-z, 4-all directions 
   EPSILON=  1.0000000 bulk dielectric constant

 Exchange correlation treatment:
   GGA     =    --    GGA type
   LEXCH   =     8    internal setting for exchange type
   VOSKOWN=      0    Vosko Wilk Nusair interpolation
   LHFCALC =     F    Hartree Fock is set to
   LHFONE  =     F    Hartree Fock one center treatment
   AEXX    =    0.0000 exact exchange contribution

 Linear response parameters
   LEPSILON=     F    determine dielectric tensor
   LRPA    =     F    only Hartree local field effects (RPA)
   LNABLA  =     F    use nabla operator in PAW spheres
   LVEL    =     F    velocity operator in full k-point grid
   LINTERFAST=   F  fast interpolation
   KINTER  =     0    interpolate to denser k-point grid
   CSHIFT  =0.1000    complex shift for real part using Kramers Kronig
   OMEGAMAX=  -1.0    maximum frequency
   DEG_THRESHOLD= 0.2000000E-02 threshold for treating states as degnerate
   RTIME   =   -0.100 relaxation time in fs
  (WPLASMAI=    0.000 imaginary part of plasma frequency in eV, 0.658/RTIME)
   DFIELD  = 0.0000000 0.0000000 0.0000000 field for delta impulse in time
 
 Orbital magnetization related:
   ORBITALMAG=     F  switch on orbital magnetization
   LCHIMAG   =     F  perturbation theory with respect to B field
   DQ        =  0.001000  dq finite difference perturbation B field
   LLRAUG    =     F  two centre corrections for induced B field



--------------------------------------------------------------------------------------------------------


 molecular dynamics for ions
   using a microcanonical ensemble
 charge density and potential will be updated during run
 non-spin polarized calculation
 RMM-DIIS sequential band-by-band and
  variant of blocked Davidson during initial phase
 perform sub-space diagonalisation
    before iterative eigenvector-optimisation
 modified Broyden-mixing scheme, WC =      100.0
 initial mixing is a Kerker type mixing with AMIX =  0.4000 and BMIX =      1.0000
 Hartree-type preconditioning will be used
 using additional bands            4
 reciprocal scheme for non local part
 use partial core corrections
 calculate Harris-corrections to forces 
   (improved forces if not selfconsistent)
 use gradient corrections 
 use of overlap-Matrix (Vanderbilt PP)
 Gauss-broadening in eV      SIGMA  =   0.20


--------------------------------------------------------------------------------------------------------


  energy-cutoff  :      400.00
  volume of cell :     1004.35
      direct lattice vectors                 reciprocal lattice vectors
     9.776750964  0.000000000  0.000000000     0.102283469  0.002721835 -0.001730765
    -0.268457895 10.088341322  0.000000000     0.000000000  0.099124323 -0.001045916
     0.169447882  0.107445185 10.182876061     0.000000000  0.000000000  0.098204082

  length of vectors
     9.776750964 10.091912617 10.184852573     0.102334314  0.099129840  0.098204082


 
 k-points in units of 2pi/SCALE and weight: read from INCAR                         
   0.02557087  0.02546154  0.02385685       0.250
  -0.02557087  0.02410062  0.02472223       0.250
   0.02557087 -0.02410062  0.02437981       0.250
  -0.02557087 -0.02546154  0.02524519       0.250
 
 k-points in reciprocal lattice and weights: read from INCAR                         
   0.25000000  0.25000000  0.25000000       0.250
  -0.25000000  0.25000000  0.25000000       0.250
   0.25000000 -0.25000000  0.25000000       0.250
  -0.25000000 -0.25000000  0.25000000       0.250
 
 position of ions in fractional coordinates (direct lattice) 
   0.53831790  0.40684176  0.36074458
   0.39469018  0.48048919  0.43874068
   0.55225766  0.56586746  0.44308394
   0.52847049  0.41615147  0.53920044
   0.50303544  0.46663149  0.44470754
 
 position of ions in cartesian coordinates  (Angst):
   5.21490760  4.14311881  3.67341737
   3.80414018  4.89447949  4.46764193
   5.32245364  5.75627129  4.51186889
   5.14637162  4.25621253  5.49061125
   4.86813610  4.75531948  4.52840174
 


--------------------------------------------------------------------------------------------------------


 k-point  1 :   0.2500 0.2500 0.2500  plane waves:   18245
 k-point  2 :  -0.2500 0.2500 0.2500  plane waves:   18254
 k-point  3 :   0.2500-0.2500 0.2500  plane waves:   18244
 k-point  4 :  -0.2500-0.2500 0.2500  plane waves:   18246

 maximum and minimum number of plane-waves per node :      4579     4545

 maximum number of plane-waves:     18254
 maximum index in each direction: 
   IXMAX=   16   IYMAX=   16   IZMAX=   16
   IXMIN=  -16   IYMIN=  -16   IZMIN=  -16


 parallel 3D FFT for wavefunctions:
    minimum data exchange during FFTs selected (reduces bandwidth)
 parallel 3D FFT for charge:
    minimum data exchange during FFTs selected (reduces bandwidth)


 total amount of memory used by VASP MPI-rank0    52969. kBytes
=======================================================================

   base      :      30000. kBytes
   nonl-proj :       2701. kBytes
   fftplans  :       7644. kBytes
   grid      :      12032. kBytes
   one-center:          6. kBytes
   wavefun   :        586. kBytes
 
     INWAV:  cpu time    0.0000: real time    0.0000
 Broyden mixing: mesh for mixing (old mesh)
   NGX = 31   NGY = 33   NGZ = 33
  (NGX  =128   NGY  =140   NGZ  =140)
  gives a total of  33759 points

 initial charge density was supplied:
 charge density of overlapping atoms calculated
 number of electron       8.0000000 magnetization 
 keeping initial charge density in first step


--------------------------------------------------------------------------------------------------------


 Maximum index for augmentation-charges          291 (set IRDMAX)


--------------------------------------------------------------------------------------------------------


 First call to EWALD:  gamma=   0.177
 Maximum number of real-space cells 3x 3x 3
 Maximum number of reciprocal cells 3x 3x 3

    FEWALD:  cpu time    0.0016: real time    0.0016


--------------------------------------- Iteration      1(   1)  ---------------------------------------


    POTLOK:  cpu time    0.1279: real time    0.1279
    SETDIJ:  cpu time    0.0016: real time    0.0016
     EDDAV:  cpu time    0.1882: real time    0.1882
       DOS:  cpu time    0.0007: real time    0.0007
    --------------------------------------------
      LOOP:  cpu time    0.3184: real time    0.3184

 eigenvalue-minimisations  :    96
 total energy-change (2. order) : 0.1362005E+02  (-0.1915647E+03)
 number of electron       8.0000000 magnetization 
 augmentation part        8.0000000 magnetization 

 Free energy of the ion-electron system (eV)
  ---------------------------------------------------
  alpha Z        PSCENC =         0.24120173
  Ewald energy   TEWEN  =       128.24434558
  -Hartree energ DENC   =      -243.82837883
  -exchange      EXHF   =         0.00000000
  -V(xc)+E(xc)   XCENC  =        21.99247204
  PAW double counting   =       117.05815612     -117.66307307
  entropy T*S    EENTRO =        -0.00000000
  eigenvalues    EBANDS =       -89.46642701
  atomic energy  EATOM  =       197.04175453
  Solvation  Ediel_sol  =         0.00000000
  ---------------------------------------------------
  free energy    TOTEN  =        13.62005111 eV

  energy without entropy =       13.62005111  energy(sigma->0) =       13.62005111


--------------------------------------------------------------------------------------------------------




--------------------------------------- Iteration      1(   2)  ---------------------------------------


     EDDAV:  cpu time    0.1399: real time    0.1399
       DOS:  cpu time    0.0002: real time    0.0002
    --------------------------------------------
      LOOP:  cpu time    0.1401: real time    0.1401

 eigenvalue-minimisations  :    64
 total energy-change (2. order) :-0.3645474E+02  (-0.3645474E+02)
 number of electron       8.0000000 magnetization 
 augmentation part        8.0000000 magnetization 

 Free energy of the ion-electron system (eV)
  ---------------------------------------------------
  alpha Z        PSCENC =         0.24120173
  Ewald energy   TEWEN  =       128.24434558
  -Hartree energ DENC   =      -243.82837883
  -exchange      EXHF   =         0.00000000
  -V(xc)+E(xc)   XCENC  =        21.99247204
  PAW double counting   =       117.05815612     -117.66307307
  entropy T*S    EENTRO =        -0.00000000
  eigenvalues    EBANDS =      -125.92116371
  atomic energy  EATOM  =       197.04175453
  Solvation  Ediel_sol  =         0.00000000
  ---------------------------------------------------
  free energy    TOTEN  =       -22.83468559 eV

  energy without entropy =      -22.83468559  energy(sigma->0) =      -22.83468559


--------------------------------------------------------------------------------------------------------




--------------------------------------- Iteration      1(   3)  ---------------------------------------


     EDDAV:  cpu time    0.1399: real time    0.1399
       DOS:  cpu time    0.0002: real time    0.0002
    --------------------------------------------
      LOOP:  cpu time    0.1401: real time    0.1401

 eigenvalue-minimisations  :    64
 total energy-change (2. order) :-0.4472492E+01  (-0.4472492E+01)
 number of electron       8.0000000 magnetization 
 augmentation part        8.0000000 magnetization 

 Free energy of the ion-electron system (eV)
  ---------------------------------------------------
  alpha Z        PSCENC =         0.24120173
  Ewald energy   TEWEN  =       128.24434558
  -Hartree energ DENC   =      -243.82837883
  -exchange      EXHF   =         0.00000000
  -V(xc)+E(xc)   XCENC  =        21.99247204
  PAW double counting   =       117.05815612     -117.66307307
  entropy T*S    EENTRO =        -0.00000000
  eigenvalues    EBANDS =      -130.39365586
  atomic energy  EATOM  =       197.04175453
  Solvation  Ediel_sol  =         0.00000000
  ---------------------------------------------------
  free energy    TOTEN  =       -27.30717775 eV

  energy without entropy =      -27.30717775  energy(sigma->0) =      -27.30717775


--------------------------------------------------------------------------------------------------------




--------------------------------------- Iteration      1(   4)  ---------------------------------------


     EDDAV:  cpu time    0.2330: real time    0.2331
       DOS:  cpu time    0.0002: real time    0.0002
    --------------------------------------------
      LOOP:  cpu time    0.2332: real time    0.2333

 eigenvalue-minimisations  :   128
 total energy-change (2. order) :-0.1872289E+00  (-0.1872289E+00)
 number of electron       8.0000000 magnetization 
 augmentation part        8.0000000 magnetization 

 Free energy of the ion-electron system (eV)
  ---------------------------------------------------
  alpha Z        PSCENC =         0.24120173
  Ewald energy   TEWEN  =       128.24434558
  -Hartree energ DENC   =      -243.82837883
  -exchange      EXHF   =         0.00000000
  -V(xc)+E(xc)   XCENC  =        21.99247204
  PAW double counting   =       117.05815612     -117.66307307
  entropy T*S    EENTRO =        -0.00000000
  eigenvalues    EBANDS =      -130.58088476
  atomic energy  EATOM  =       197.04175453
  Solvation  Ediel_sol  =         0.00000000
  ---------------------------------------------------
  free energy    TOTEN  =       -27.49440665 eV

  energy without entropy =      -27.49440665  energy(sigma->0) =      -27.49440665


--------------------------------------------------------------------------------------------------------




--------------------------------------- Iteration      1(   5)  ---------------------------------------


     EDDAV:  cpu time    0.1749: real time    0.1749
       DOS:  cpu time    0.0002: real time    0.0002
    CHARGE:  cpu time    0.0176: real time    0.0176
    MIXING:  cpu time    0.0037: real time    0.0037
    --------------------------------------------
      LOOP:  cpu time    0.1963: real time    0.1963

 eigenvalue-minimisations  :    88
 total energy-change (2. order) :-0.6182650E-04  (-0.6182657E-04)
 number of electron       8.0000000 magnetization 
 augmentation part        0.2242098 magnetization 

 Broyden mixing:
  rms(total) = 0.86675E+00    rms(broyden)= 0.86649E+00
  rms(prec ) = 0.12255E+01
  weight for this iteration     100.00

 Free energy of the ion-electron system (eV)
  ---------------------------------------------------
  alpha Z        PSCENC =         0.24120173
  Ewald energy   TEWEN  =       128.24434558
  -Hartree energ DENC   =      -243.82837883
  -exchange      EXHF   =         0.00000000
  -V(xc)+E(xc)   XCENC  =        21.99247204
  PAW double counting   =       117.05815612     -117.66307307
  entropy T*S    EENTRO =        -0.00000000
  eigenvalues    EBANDS =      -130.58094659
  atomic energy  EATOM  =       197.04175453
  Solvation  Ediel_sol  =         0.00000000
  ---------------------------------------------------
  free energy    TOTEN  =       -27.49446847 eV

  energy without entropy =      -27.49446847  energy(sigma->0) =      -27.49446847


--------------------------------------------------------------------------------------------------------




--------------------------------------- Iteration      1(   6)  ---------------------------------------


    POTLOK:  cpu time    0.1247: real time    0.1247
    SETDIJ:  cpu time    0.0014: real time    0.0014
    EDDIAG:  cpu time    0.0349: real time    0.0349
  RMM-DIIS:  cpu time    0.1392: real time    0.1392
    ORTHCH:  cpu time    0.0019: real time    0.0019
       DOS:  cpu time    0.0002: real time    0.0002
    CHARGE:  cpu time    0.0171: real time    0.0171
    MIXING:  cpu time    0.0040: real time    0.0040
    --------------------------------------------
      LOOP:  cpu time    0.3233: real time    0.3233

 eigenvalue-minimisations  :    64
 total energy-change (2. order) : 0.2860937E+01  (-0.5282780E+00)
 number of electron       8.0000000 magnetization 
 augmentation part        0.1976062 magnetization 

 Broyden mixing:
  rms(total) = 0.42728E+00    rms(broyden)= 0.42718E+00
  rms(prec ) = 0.55320E+00
  weight for this iteration     100.00

 eigenvalues of (default mixing * dielectric matrix)
  average eigenvalue GAMMA=   1.3023
  1.3023

 Free energy of the ion-electron system (eV)
  ---------------------------------------------------
  alpha Z        PSCENC =         0.24120173
  Ewald energy   TEWEN  =       128.24434558
  -Hartree energ DENC   =      -263.44069612
  -exchange      EXHF   =         0.00000000
  -V(xc)+E(xc)   XCENC  =        23.18353199
  PAW double counting   =       237.43025771     -238.20844862
  entropy T*S    EENTRO =        -0.00000000
  eigenvalues    EBANDS =      -109.12547840
  atomic energy  EATOM  =       197.04175453
  Solvation  Ediel_sol  =         0.00000000
  ---------------------------------------------------
  free energy    TOTEN  =       -24.63353159 eV

  energy without entropy =      -24.63353159  energy(sigma->0) =      -24.63353159


--------------------------------------------------------------------------------------------------------




--------------------------------------- Iteration      1(   7)  ---------------------------------------


    POTLOK:  cpu time    0.1253: real time    0.1253
    SETDIJ:  cpu time    0.0015: real time    0.0015
    EDDIAG:  cpu time    0.0327: real time    0.0327
  RMM-DIIS:  cpu time    0.1387: real time    0.1387
    ORTHCH:  cpu time    0.0014: real time    0.0014
       DOS:  cpu time    0.0002: real time    0.0002
    CHARGE:  cpu time    0.0164: real time    0.0164
    MIXING:  cpu time    0.0040: real time    0.0040
    --------------------------------------------
      LOOP:  cpu time    0.3202: real time    0.3202

 eigenvalue-minimisations  :    64
 total energy-change (2. order) : 0.4852231E+00  (-0.1178918E+00)
 number of electron       8.0000000 magnetization 
 augmentation part        0.1872432 magnetization 

 Broyden mixing:
  rms(total) = 0.22739E+00    rms(broyden)= 0.22733E+00
  rms(prec ) = 0.27466E+00
  weight for this iteration     100.00

 eigenvalues of (default mixing * dielectric matrix)
  average eigenvalue GAMMA=   1.8407
  1.4520  2.2294

 Free energy of the ion-electron system (eV)
  ---------------------------------------------------
  alpha Z        PSCENC =         0.24120173
  Ewald energy   TEWEN  =       128.24434558
  -Hartree energ DENC   =      -274.98213144
  -exchange      EXHF   =         0.00000000
  -V(xc)+E(xc)   XCENC  =        24.03231942
  PAW double counting   =       362.33167070     -363.14817007
  entropy T*S    EENTRO =        -0.00000000
  eigenvalues    EBANDS =       -97.90929893
  atomic energy  EATOM  =       197.04175453
  Solvation  Ediel_sol  =         0.00000000
  ---------------------------------------------------
  free energy    TOTEN  =       -24.14830848 eV

  energy without entropy =      -24.14830848  energy(sigma->0) =      -24.14830848


--------------------------------------------------------------------------------------------------------




--------------------------------------- Iteration      1(   8)  ---------------------------------------


    POTLOK:  cpu time    0.1247: real time    0.1247
    SETDIJ:  cpu time    0.0014: real time    0.0014
    EDDIAG:  cpu time    0.0321: real time    0.0321
  RMM-DIIS:  cpu time    0.1412: real time    0.1412
    ORTHCH:  cpu time    0.0013: real time    0.0013
       DOS:  cpu time    0.0002: real time    0.0002
    CHARGE:  cpu time    0.0161: real time    0.0161
    MIXING:  cpu time    0.0042: real time    0.0042
    --------------------------------------------
      LOOP:  cpu time    0.3213: real time    0.3213

 eigenvalue-minimisations  :    64
 total energy-change (2. order) : 0.1455871E+00  (-0.1630808E-01)
 number of electron       8.0000000 magnetization 
 augmentation part        0.1858640 magnetization 

 Broyden mixing:
  rms(total) = 0.22674E-01    rms(broyden)= 0.22646E-01
  rms(prec ) = 0.52370E-01
  weight for this iteration     100.00

 eigenvalues of (default mixing * dielectric matrix)
  average eigenvalue GAMMA=   1.5469
  2.2474  0.9907  1.4027

 Free energy of the ion-electron system (eV)
  ---------------------------------------------------
  alpha Z        PSCENC =         0.24120173
  Ewald energy   TEWEN  =       128.24434558
  -Hartree energ DENC   =      -280.39089212
  -exchange      EXHF   =         0.00000000
  -V(xc)+E(xc)   XCENC  =        24.56836395
  PAW double counting   =       470.28430866     -471.06911057
  entropy T*S    EENTRO =        -0.00000000
  eigenvalues    EBANDS =       -92.92269316
  atomic energy  EATOM  =       197.04175453
  Solvation  Ediel_sol  =         0.00000000
  ---------------------------------------------------
  free energy    TOTEN  =       -24.00272138 eV

  energy without entropy =      -24.00272138  energy(sigma->0) =      -24.00272138


--------------------------------------------------------------------------------------------------------




--------------------------------------- Iteration      1(   9)  ---------------------------------------


    POTLOK:  cpu time    0.1247: real time    0.1247
    SETDIJ:  cpu time    0.0014: real time    0.0014
    EDDIAG:  cpu time    0.0321: real time    0.0321
  RMM-DIIS:  cpu time    0.1406: real time    0.1406
    ORTHCH:  cpu time    0.0014: real time    0.0014
       DOS:  cpu time    0.0002: real time    0.0002
    CHARGE:  cpu time    0.0160: real time    0.0160
    MIXING:  cpu time    0.0043: real time    0.0043
    --------------------------------------------
      LOOP:  cpu time    0.3208: real time    0.3208

 eigenvalue-minimisations  :    64
 total energy-change (2. order) : 0.5598158E-02  (-0.1097681E-02)
 number of electron       8.0000000 magnetization 
 augmentation part        0.1852995 magnetization 

 Broyden mixing:
  rms(total) = 0.19468E-01    rms(broyden)= 0.19463E-01
  rms(prec ) = 0.40126E-01
  weight for this iteration     100.00

 eigenvalues of (default mixing * dielectric matrix)
  average eigenvalue GAMMA=   2.0878
  1.0038  1.3700  2.9887  2.9887

 Free energy of the ion-electron system (eV)
  ---------------------------------------------------
  alpha Z        PSCENC =         0.24120173
  Ewald energy   TEWEN  =       128.24434558
  -Hartree energ DENC   =      -281.64038902
  -exchange      EXHF   =         0.00000000
  -V(xc)+E(xc)   XCENC  =        24.63705622
  PAW double counting   =       473.44093658     -474.22840677
  entropy T*S    EENTRO =        -0.00000000
  eigenvalues    EBANDS =       -91.73362209
  atomic energy  EATOM  =       197.04175453
  Solvation  Ediel_sol  =         0.00000000
  ---------------------------------------------------
  free energy    TOTEN  =       -23.99712323 eV

  energy without entropy =      -23.99712323  energy(sigma->0) =      -23.99712323


--------------------------------------------------------------------------------------------------------




--------------------------------------- Iteration      1(  10)  ---------------------------------------


    POTLOK:  cpu time    0.1208: real time    0.1208
    SETDIJ:  cpu time    0.0014: real time    0.0014
    EDDIAG:  cpu time    0.0320: real time    0.0320
  RMM-DIIS:  cpu time    0.1411: real time    0.1411
    ORTHCH:  cpu time    0.0016: real time    0.0016
       DOS:  cpu time    0.0002: real time    0.0002
    CHARGE:  cpu time    0.0161: real time    0.0161
    MIXING:  cpu time    0.0043: real time    0.0043
    --------------------------------------------
      LOOP:  cpu time    0.3175: real time    0.3175

 eigenvalue-minimisations  :    64
 total energy-change (2. order) : 0.6159958E-02  (-0.2389158E-02)
 number of electron       8.0000000 magnetization 
 augmentation part        0.1842728 magnetization 

 Broyden mixing:
  rms(total) = 0.27308E-01    rms(broyden)= 0.27306E-01
  rms(prec ) = 0.34845E-01
  weight for this iteration     100.00

 eigenvalues of (default mixing * dielectric matrix)
  average eigenvalue GAMMA=   1.7845
  3.0568  2.4125  0.9816  1.2358  1.2358

 Free energy of the ion-electron system (eV)
  ---------------------------------------------------
  alpha Z        PSCENC =         0.24120173
  Ewald energy   TEWEN  =       128.24434558
  -Hartree energ DENC   =      -283.81517037
  -exchange      EXHF   =         0.00000000
  -V(xc)+E(xc)   XCENC  =        24.70663779
  PAW double counting   =       457.79301288     -458.58387427
  entropy T*S    EENTRO =        -0.00000000
  eigenvalues    EBANDS =       -89.61887114
  atomic energy  EATOM  =       197.04175453
  Solvation  Ediel_sol  =         0.00000000
  ---------------------------------------------------
  free energy    TOTEN  =       -23.99096327 eV

  energy without entropy =      -23.99096327  energy(sigma->0) =      -23.99096327


--------------------------------------------------------------------------------------------------------




--------------------------------------- Iteration      1(  11)  ---------------------------------------


    POTLOK:  cpu time    0.1201: real time    0.1202
    SETDIJ:  cpu time    0.0015: real time    0.0015
    EDDIAG:  cpu time    0.0321: real time    0.0321
  RMM-DIIS:  cpu time    0.1393: real time    0.1393
    ORTHCH:  cpu time    0.0014: real time    0.0014
       DOS:  cpu time    0.0002: real time    0.0002
    CHARGE:  cpu time    0.0160: real time    0.0160
    MIXING:  cpu time    0.0044: real time    0.0044
    --------------------------------------------
      LOOP:  cpu time    0.3150: real time    0.3150

 eigenvalue-minimisations  :    64
 total energy-change (2. order) :-0.8033316E-03  (-0.8162567E-03)
 number of electron       8.0000000 magnetization 
 augmentation part        0.1846367 magnetization 

 Broyden mixing:
  rms(total) = 0.87347E-02    rms(broyden)= 0.87312E-02
  rms(prec ) = 0.14436E-01
  weight for this iteration     100.00

 eigenvalues of (default mixing * dielectric matrix)
  average eigenvalue GAMMA=   2.2552
  4.7346  3.0656  2.4274  1.2799  1.0118  1.0118

 Free energy of the ion-electron system (eV)
  ---------------------------------------------------
  alpha Z        PSCENC =         0.24120173
  Ewald energy   TEWEN  =       128.24434558
  -Hartree energ DENC   =      -283.71756169
  -exchange      EXHF   =         0.00000000
  -V(xc)+E(xc)   XCENC  =        24.72136303
  PAW double counting   =       466.95877441     -467.74213728
  entropy T*S    EENTRO =        -0.00000000
  eigenvalues    EBANDS =       -89.73950693
  atomic energy  EATOM  =       197.04175453
  Solvation  Ediel_sol  =         0.00000000
  ---------------------------------------------------
  free energy    TOTEN  =       -23.99176660 eV

  energy without entropy =      -23.99176660  energy(sigma->0) =      -23.99176660


--------------------------------------------------------------------------------------------------------




--------------------------------------- Iteration      1(  12)  ---------------------------------------


    POTLOK:  cpu time    0.1149: real time    0.1149
    SETDIJ:  cpu time    0.0014: real time    0.0014
    EDDIAG:  cpu time    0.0320: real time    0.0320
  RMM-DIIS:  cpu time    0.1399: real time    0.1399
    ORTHCH:  cpu time    0.0016: real time    0.0016
       DOS:  cpu time    0.0002: real time    0.0002
    CHARGE:  cpu time    0.0159: real time    0.0159
    MIXING:  cpu time    0.0046: real time    0.0046
    --------------------------------------------
      LOOP:  cpu time    0.3106: real time    0.3106

 eigenvalue-minimisations  :    64
 total energy-change (2. order) :-0.9294954E-02  (-0.3052236E-03)
 number of electron       8.0000000 magnetization 
 augmentation part        0.1848254 magnetization 

 Broyden mixing:
  rms(total) = 0.11649E-01    rms(broyden)= 0.11648E-01
  rms(prec ) = 0.15288E-01
  weight for this iteration     100.00

 eigenvalues of (default mixing * dielectric matrix)
  average eigenvalue GAMMA=   2.0089
  4.7363  2.9017  2.4220  1.2170  1.0052  1.0052  0.7748

 Free energy of the ion-electron system (eV)
  ---------------------------------------------------
  alpha Z        PSCENC =         0.24120173
  Ewald energy   TEWEN  =       128.24434558
  -Hartree energ DENC   =      -283.93654260
  -exchange      EXHF   =         0.00000000
  -V(xc)+E(xc)   XCENC  =        24.71362036
  PAW double counting   =       463.68595513     -464.46850475
  entropy T*S    EENTRO =        -0.00000000
  eigenvalues    EBANDS =       -89.52289154
  atomic energy  EATOM  =       197.04175453
  Solvation  Ediel_sol  =         0.00000000
  ---------------------------------------------------
  free energy    TOTEN  =       -24.00106155 eV

  energy without entropy =      -24.00106155  energy(sigma->0) =      -24.00106155


--------------------------------------------------------------------------------------------------------




--------------------------------------- Iteration      1(  13)  ---------------------------------------


    POTLOK:  cpu time    0.1138: real time    0.1138
    SETDIJ:  cpu time    0.0014: real time    0.0014
    EDDIAG:  cpu time    0.0318: real time    0.0318
  RMM-DIIS:  cpu time    0.1406: real time    0.1407
    ORTHCH:  cpu time    0.0015: real time    0.0015
       DOS:  cpu time    0.0002: real time    0.0002
    CHARGE:  cpu time    0.0161: real time    0.0161
    MIXING:  cpu time    0.0048: real time    0.0048
    --------------------------------------------
      LOOP:  cpu time    0.3102: real time    0.3102

 eigenvalue-minimisations  :    64
 total energy-change (2. order) :-0.6041976E-03  (-0.9724818E-04)
 number of electron       8.0000000 magnetization 
 augmentation part        0.1845856 magnetization 

 Broyden mixing:
  rms(total) = 0.43170E-02    rms(broyden)= 0.43167E-02
  rms(prec ) = 0.60780E-02
  weight for this iteration     100.00

 eigenvalues of (default mixing * dielectric matrix)
  average eigenvalue GAMMA=   2.3914
  6.0313  4.0007  2.4584  2.3105  1.2245  1.2245  0.9891  0.8926

 Free energy of the ion-electron system (eV)
  ---------------------------------------------------
  alpha Z        PSCENC =         0.24120173
  Ewald energy   TEWEN  =       128.24434558
  -Hartree energ DENC   =      -284.11422992
  -exchange      EXHF   =         0.00000000
  -V(xc)+E(xc)   XCENC  =        24.71845843
  PAW double counting   =       463.48216623     -464.26702503
  entropy T*S    EENTRO =        -0.00000000
  eigenvalues    EBANDS =       -89.34833730
  atomic energy  EATOM  =       197.04175453
  Solvation  Ediel_sol  =         0.00000000
  ---------------------------------------------------
  free energy    TOTEN  =       -24.00166575 eV

  energy without entropy =      -24.00166575  energy(sigma->0) =      -24.00166575


--------------------------------------------------------------------------------------------------------




--------------------------------------- Iteration      1(  14)  ---------------------------------------


    POTLOK:  cpu time    0.1124: real time    0.1125
    SETDIJ:  cpu time    0.0014: real time    0.0014
    EDDIAG:  cpu time    0.0320: real time    0.0320
  RMM-DIIS:  cpu time    0.1406: real time    0.1406
    ORTHCH:  cpu time    0.0015: real time    0.0015
       DOS:  cpu time    0.0002: real time    0.0002
    CHARGE:  cpu time    0.0161: real time    0.0161
    MIXING:  cpu time    0.0049: real time    0.0049
    --------------------------------------------
      LOOP:  cpu time    0.3092: real time    0.3093

 eigenvalue-minimisations  :    64
 total energy-change (2. order) :-0.2826545E-02  (-0.1107477E-03)
 number of electron       8.0000000 magnetization 
 augmentation part        0.1844823 magnetization 

 Broyden mixing:
  rms(total) = 0.23575E-02    rms(broyden)= 0.23557E-02
  rms(prec ) = 0.31600E-02
  weight for this iteration     100.00

 eigenvalues of (default mixing * dielectric matrix)
  average eigenvalue GAMMA=   2.3189
  6.3487  3.9091  2.5763  2.3253  1.2417  1.2417  1.3211  0.9889  0.9176

 Free energy of the ion-electron system (eV)
  ---------------------------------------------------
  alpha Z        PSCENC =         0.24120173
  Ewald energy   TEWEN  =       128.24434558
  -Hartree energ DENC   =      -284.10659753
  -exchange      EXHF   =         0.00000000
  -V(xc)+E(xc)   XCENC  =        24.70860536
  PAW double counting   =       462.89653881     -463.68251352
  entropy T*S    EENTRO =        -0.00000000
  eigenvalues    EBANDS =       -89.34782727
  atomic energy  EATOM  =       197.04175453
  Solvation  Ediel_sol  =         0.00000000
  ---------------------------------------------------
  free energy    TOTEN  =       -24.00449230 eV

  energy without entropy =      -24.00449230  energy(sigma->0) =      -24.00449230


--------------------------------------------------------------------------------------------------------




--------------------------------------- Iteration      1(  15)  ---------------------------------------


    POTLOK:  cpu time    0.1127: real time    0.1127
    SETDIJ:  cpu time    0.0014: real time    0.0014
    EDDIAG:  cpu time    0.0318: real time    0.0318
  RMM-DIIS:  cpu time    0.1410: real time    0.1410
    ORTHCH:  cpu time    0.0014: real time    0.0014
       DOS:  cpu time    0.0002: real time    0.0002
    CHARGE:  cpu time    0.0161: real time    0.0161
    MIXING:  cpu time    0.0050: real time    0.0050
    --------------------------------------------
      LOOP:  cpu time    0.3097: real time    0.3097

 eigenvalue-minimisations  :    64
 total energy-change (2. order) :-0.2761944E-03  (-0.3880774E-05)
 number of electron       8.0000000 magnetization 
 augmentation part        0.1844442 magnetization 

 Broyden mixing:
  rms(total) = 0.14878E-02    rms(broyden)= 0.14875E-02
  rms(prec ) = 0.20038E-02
  weight for this iteration     100.00

 eigenvalues of (default mixing * dielectric matrix)
  average eigenvalue GAMMA=   2.5080
  7.4692  4.7572  2.7897  2.6027  2.0800  1.2569  1.2569  0.9837  0.9837  0.9001

 Free energy of the ion-electron system (eV)
  ---------------------------------------------------
  alpha Z        PSCENC =         0.24120173
  Ewald energy   TEWEN  =       128.24434558
  -Hartree energ DENC   =      -284.10980420
  -exchange      EXHF   =         0.00000000
  -V(xc)+E(xc)   XCENC  =        24.70927992
  PAW double counting   =       463.00742375     -463.79294131
  entropy T*S    EENTRO =        -0.00000000
  eigenvalues    EBANDS =       -89.34602849
  atomic energy  EATOM  =       197.04175453
  Solvation  Ediel_sol  =         0.00000000
  ---------------------------------------------------
  free energy    TOTEN  =       -24.00476849 eV

  energy without entropy =      -24.00476849  energy(sigma->0) =      -24.00476849


--------------------------------------------------------------------------------------------------------




--------------------------------------- Iteration      1(  16)  ---------------------------------------


    POTLOK:  cpu time    0.1139: real time    0.1139
    SETDIJ:  cpu time    0.0014: real time    0.0014
    EDDIAG:  cpu time    0.0316: real time    0.0316
  RMM-DIIS:  cpu time    0.1381: real time    0.1381
    ORTHCH:  cpu time    0.0014: real time    0.0014
       DOS:  cpu time    0.0002: real time    0.0002
    CHARGE:  cpu time    0.0159: real time    0.0159
    MIXING:  cpu time    0.0051: real time    0.0051
    --------------------------------------------
      LOOP:  cpu time    0.3076: real time    0.3076

 eigenvalue-minimisations  :    64
 total energy-change (2. order) :-0.2085635E-03  (-0.6880054E-05)
 number of electron       8.0000000 magnetization 
 augmentation part        0.1844797 magnetization 

 Broyden mixing:
  rms(total) = 0.36444E-03    rms(broyden)= 0.36405E-03
  rms(prec ) = 0.53685E-03
  weight for this iteration     100.00

 eigenvalues of (default mixing * dielectric matrix)
  average eigenvalue GAMMA=   2.4759
  7.6263  4.7498  3.2493  2.4164  1.9192  1.9192  1.2315  1.2315  1.0263  0.9327
  0.9327

 Free energy of the ion-electron system (eV)
  ---------------------------------------------------
  alpha Z        PSCENC =         0.24120173
  Ewald energy   TEWEN  =       128.24434558
  -Hartree energ DENC   =      -284.07268139
  -exchange      EXHF   =         0.00000000
  -V(xc)+E(xc)   XCENC  =        24.70784412
  PAW double counting   =       462.98427087     -463.76933619
  entropy T*S    EENTRO =        -0.00000000
  eigenvalues    EBANDS =       -89.38237631
  atomic energy  EATOM  =       197.04175453
  Solvation  Ediel_sol  =         0.00000000
  ---------------------------------------------------
  free energy    TOTEN  =       -24.00497705 eV

  energy without entropy =      -24.00497705  energy(sigma->0) =      -24.00497705


--------------------------------------------------------------------------------------------------------




--------------------------------------- Iteration      1(  17)  ---------------------------------------


    POTLOK:  cpu time    0.1145: real time    0.1145
    SETDIJ:  cpu time    0.0014: real time    0.0014
    EDDIAG:  cpu time    0.0315: real time    0.0315
  RMM-DIIS:  cpu time    0.1386: real time    0.1387
    ORTHCH:  cpu time    0.0015: real time    0.0015
       DOS:  cpu time    0.0002: real time    0.0002
    CHARGE:  cpu time    0.0159: real time    0.0159
    MIXING:  cpu time    0.0054: real time    0.0054
    --------------------------------------------
      LOOP:  cpu time    0.3090: real time    0.3091

 eigenvalue-minimisations  :    64
 total energy-change (2. order) :-0.4447037E-04  (-0.1824165E-05)
 number of electron       8.0000000 magnetization 
 augmentation part        0.1844534 magnetization 

 Broyden mixing:
  rms(total) = 0.58523E-03    rms(broyden)= 0.58521E-03
  rms(prec ) = 0.80432E-03
  weight for this iteration     100.00

 eigenvalues of (default mixing * dielectric matrix)
  average eigenvalue GAMMA=   2.5631
  8.3683  5.2643  3.8087  2.5034  2.5034  1.8782  1.2775  1.2775  1.0433  0.9599
  0.9599  0.9123

 Free energy of the ion-electron system (eV)
  ---------------------------------------------------
  alpha Z        PSCENC =         0.24120173
  Ewald energy   TEWEN  =       128.24434558
  -Hartree energ DENC   =      -284.11068586
  -exchange      EXHF   =         0.00000000
  -V(xc)+E(xc)   XCENC  =        24.70961398
  PAW double counting   =       462.97102705     -463.75637235
  entropy T*S    EENTRO =        -0.00000000
  eigenvalues    EBANDS =       -89.34590619
  atomic energy  EATOM  =       197.04175453
  Solvation  Ediel_sol  =         0.00000000
  ---------------------------------------------------
  free energy    TOTEN  =       -24.00502152 eV

  energy without entropy =      -24.00502152  energy(sigma->0) =      -24.00502152


--------------------------------------------------------------------------------------------------------




--------------------------------------- Iteration      1(  18)  ---------------------------------------


    POTLOK:  cpu time    0.1165: real time    0.1165
    SETDIJ:  cpu time    0.0015: real time    0.0015
    EDDIAG:  cpu time    0.0322: real time    0.0322
  RMM-DIIS:  cpu time    0.1385: real time    0.1385
    ORTHCH:  cpu time    0.0015: real time    0.0015
       DOS:  cpu time    0.0002: real time    0.0002
    CHARGE:  cpu time    0.0163: real time    0.0163
    MIXING:  cpu time    0.0055: real time    0.0055
    --------------------------------------------
      LOOP:  cpu time    0.3122: real time    0.3122

 eigenvalue-minimisations  :    64
 total energy-change (2. order) :-0.1015235E-04  (-0.6259176E-06)
 number of electron       8.0000000 magnetization 
 augmentation part        0.1844679 magnetization 

 Broyden mixing:
  rms(total) = 0.75351E-04    rms(broyden)= 0.75178E-04
  rms(prec ) = 0.10577E-03
  weight for this iteration     100.00

 eigenvalues of (default mixing * dielectric matrix)
  average eigenvalue GAMMA=   2.6102
  8.4476  5.4796  3.7853  3.1828  2.3939  2.3939  1.8048  1.2619  1.2619  0.9050
  0.9822  0.9822  1.0522

 Free energy of the ion-electron system (eV)
  ---------------------------------------------------
  alpha Z        PSCENC =         0.24120173
  Ewald energy   TEWEN  =       128.24434558
  -Hartree energ DENC   =      -284.09189692
  -exchange      EXHF   =         0.00000000
  -V(xc)+E(xc)   XCENC  =        24.70878172
  PAW double counting   =       462.97448279     -463.75963762
  entropy T*S    EENTRO =        -0.00000000
  eigenvalues    EBANDS =       -89.36406350
  atomic energy  EATOM  =       197.04175453
  Solvation  Ediel_sol  =         0.00000000
  ---------------------------------------------------
  free energy    TOTEN  =       -24.00503168 eV

  energy without entropy =      -24.00503168  energy(sigma->0) =      -24.00503168


--------------------------------------------------------------------------------------------------------




--------------------------------------- Iteration      1(  19)  ---------------------------------------


    POTLOK:  cpu time    0.1176: real time    0.1176
    SETDIJ:  cpu time    0.0014: real time    0.0014
    EDDIAG:  cpu time    0.0316: real time    0.0316
  RMM-DIIS:  cpu time    0.1115: real time    0.1115
    ORTHCH:  cpu time    0.0014: real time    0.0014
       DOS:  cpu time    0.0002: real time    0.0002
    CHARGE:  cpu time    0.0160: real time    0.0160
    MIXING:  cpu time    0.0057: real time    0.0057
    --------------------------------------------
      LOOP:  cpu time    0.2854: real time    0.2854

 eigenvalue-minimisations  :    48
 total energy-change (2. order) :-0.4179416E-05  (-0.6232671E-07)
 number of electron       8.0000000 magnetization 
 augmentation part        0.1844729 magnetization 

 Broyden mixing:
  rms(total) = 0.10343E-03    rms(broyden)= 0.10339E-03
  rms(prec ) = 0.14347E-03
  weight for this iteration     100.00

 eigenvalues of (default mixing * dielectric matrix)
  average eigenvalue GAMMA=   2.5537
  8.5230  5.6047  3.8874  3.6489  2.4178  2.4178  1.9587  1.2602  1.2602  1.0344
  0.9182  0.9182  0.9509  0.9509

 Free energy of the ion-electron system (eV)
  ---------------------------------------------------
  alpha Z        PSCENC =         0.24120173
  Ewald energy   TEWEN  =       128.24434558
  -Hartree energ DENC   =      -284.08713200
  -exchange      EXHF   =         0.00000000
  -V(xc)+E(xc)   XCENC  =        24.70841628
  PAW double counting   =       462.95122078     -463.73635813
  entropy T*S    EENTRO =        -0.00000000
  eigenvalues    EBANDS =       -89.36848464
  atomic energy  EATOM  =       197.04175453
  Solvation  Ediel_sol  =         0.00000000
  ---------------------------------------------------
  free energy    TOTEN  =       -24.00503586 eV

  energy without entropy =      -24.00503586  energy(sigma->0) =      -24.00503586


--------------------------------------------------------------------------------------------------------




--------------------------------------- Iteration      1(  20)  ---------------------------------------


    POTLOK:  cpu time    0.1178: real time    0.1178
    SETDIJ:  cpu time    0.0014: real time    0.0014
    EDDIAG:  cpu time    0.0317: real time    0.0317
  RMM-DIIS:  cpu time    0.1105: real time    0.1105
    ORTHCH:  cpu time    0.0015: real time    0.0015
       DOS:  cpu time    0.0002: real time    0.0002
    --------------------------------------------
      LOOP:  cpu time    0.2631: real time    0.2631

 eigenvalue-minimisations  :    48
 total energy-change (2. order) :-0.7632702E-06  (-0.1504791E-07)
 number of electron       8.0000000 magnetization 
 augmentation part        0.1844729 magnetization 

 Free energy of the ion-electron system (eV)
  ---------------------------------------------------
  alpha Z        PSCENC =         0.24120173
  Ewald energy   TEWEN  =       128.24434558
  -Hartree energ DENC   =      -284.08934895
  -exchange      EXHF   =         0.00000000
  -V(xc)+E(xc)   XCENC  =        24.70849487
  PAW double counting   =       462.95141795     -463.73658967
  entropy T*S    EENTRO =        -0.00000000
  eigenvalues    EBANDS =       -89.36631266
  atomic energy  EATOM  =       197.04175453
  Solvation  Ediel_sol  =         0.00000000
  ---------------------------------------------------
  free energy    TOTEN  =       -24.00503662 eV

  energy without entropy =      -24.00503662  energy(sigma->0) =      -24.00503662


--------------------------------------------------------------------------------------------------------




 average (electrostatic) potential at core
  the test charge radii are     0.5201  0.6991
  (the norm of the test charge is              1.0000)
       1 -41.4382       2 -41.6722       3 -41.4667       4 -41.3377       5 -57.9823
 
 
 
 E-fermi :  -8.1431     XC(G=0):  -0.6966     alpha+bet : -0.2098


 k-point     1 :       0.2500    0.2500    0.2500
  band No.  band energies     occupation 
      1     -16.8642      2.00000
      2      -9.3867      2.00000
      3      -9.3027      2.00000
      4      -9.1296      2.00000
      5      -0.3199      0.00000
      6       0.5606      0.00000
      7       0.6711      0.00000
      8       0.6973      0.00000

 k-point     2 :      -0.2500    0.2500    0.2500
  band No.  band energies     occupation 
      1     -16.8643      2.00000
      2      -9.3867      2.00000
      3      -9.3027      2.00000
      4      -9.1296      2.00000
      5      -0.3219      0.00000
      6       0.5574      0.00000
      7       0.6679      0.00000
      8       0.7119      0.00000

 k-point     3 :       0.2500   -0.2500    0.2500
  band No.  band energies     occupation 
      1     -16.8642      2.00000
      2      -9.3867      2.00000
      3      -9.3027      2.00000
      4      -9.1295      2.00000
      5      -0.3230      0.00000
      6       0.5559      0.00000
      7       0.6686      0.00000
      8       0.7219      0.00000

 k-point     4 :      -0.2500   -0.2500    0.2500
  band No.  band energies     occupation 
      1     -16.8642      2.00000
      2      -9.3868      2.00000
      3      -9.3027      2.00000
      4      -9.1295      2.00000
      5      -0.3148      0.00000
      6       0.5495      0.00000
      7       0.6593      0.00000
      8       0.6819      0.00000


--------------------------------------------------------------------------------------------------------


 soft charge-density along one line, spin component           1
         0         1         2         3         4         5         6         7         8         9
 total charge-density along one line
 
 pseudopotential strength for first ion, spin component:           1
 -2.341  -4.033  -0.001  -0.001   0.001
 -4.033  -6.863  -0.003  -0.004   0.002
 -0.001  -0.003  -0.338   0.002  -0.001
 -0.001  -0.004   0.002  -0.336  -0.001
  0.001   0.002  -0.001  -0.001  -0.339
 total augmentation occupancy for first ion, spin component:           1
  3.505  -0.632   0.232   0.323  -0.131
 -0.632   0.127  -0.043  -0.060   0.024
  0.232  -0.043   0.021   0.018  -0.007
  0.323  -0.060   0.018   0.033  -0.010
 -0.131   0.024  -0.007  -0.010   0.013


------------------------ aborting loop because EDIFF is reached ----------------------------------------


    CHARGE:  cpu time    0.0158: real time    0.0158
    FORLOC:  cpu time    0.0101: real time    0.0100
    FORNL :  cpu time    0.0175: real time    0.0175
    STRESS:  cpu time    0.1370: real time    0.1370
    FORCOR:  cpu time    0.1180: real time    0.1180
    FORHAR:  cpu time    0.0365: real time    0.0365
    MIXING:  cpu time    0.0059: real time    0.0059
    OFIELD:  cpu time    0.0000: real time    0.0000

  FORCE on cell =-STRESS in cart. coord.  units (eV):
  Direction    XX          YY          ZZ          XY          YZ          ZX
  --------------------------------------------------------------------------------------
  Alpha Z     0.24120     0.24120     0.24120
  Ewald      45.53399    42.64308    40.06724    -2.38223     1.60373     1.48507
  Hartree    97.01526    94.16548    92.91199    -0.88527     0.43854     0.58880
  E(xc)     -27.18736   -27.16736   -27.16951    -0.01096     0.00587     0.00761
  Local    -200.95737  -195.56913  -192.20127     2.89708    -1.71410    -1.86892
  n-local   -15.92491   -15.80663   -15.74107    -0.01463    -0.00710     0.00254
  augment     0.11211     0.11750     0.12213     0.00258    -0.00249    -0.00140
  Kinetic   101.61427   100.58975   100.59773     0.57899    -0.29554    -0.35194
  Fock        0.00000     0.00000     0.00000     0.00000     0.00000     0.00000
  -------------------------------------------------------------------------------------
  Total       0.44719    -0.78612    -1.17155     0.18556     0.02890    -0.13825
  in kB       0.71338    -1.25404    -1.86891     0.29601     0.04610    -0.22054
  external pressure =       -0.80 kB  Pullay stress =        0.00 kB

  kinetic pressure (ideal gas correction) =      0.00 kB
  total pressure  =     -0.80 kB
  Total+kin.     0.713      -1.254      -1.869       0.296       0.046      -0.221

 VOLUME and BASIS-vectors are now :
 -----------------------------------------------------------------------------
  energy-cutoff  :      400.00
  volume of cell :     1004.35
      direct lattice vectors                 reciprocal lattice vectors
     9.776750964  0.000000000  0.000000000     0.102283469  0.002721835 -0.001730765
    -0.268457895 10.088341322  0.000000000     0.000000000  0.099124323 -0.001045916
     0.169447882  0.107445185 10.182876061     0.000000000  0.000000000  0.098204082

  length of vectors
     9.776750964 10.091912617 10.184852573     0.102334314  0.099129840  0.098204082


 FORCES acting on ions
    electron-ion (+dipol)            ewald-force                    non-local-force                 convergence-correction
 -----------------------------------------------------------------------------------------------
   -.164E+02 0.290E+02 0.404E+02   0.180E+02 -.317E+02 -.442E+02   -.167E+01 0.297E+01 0.413E+01   0.774E-04 -.144E-03 -.222E-03
   0.532E+02 -.682E+01 0.308E+01   -.597E+02 0.753E+01 -.340E+01   0.577E+01 -.795E+00 0.342E+00   -.255E-03 0.445E-04 -.113E-04
   -.219E+02 -.479E+02 0.849E+00   0.243E+02 0.528E+02 -.101E+01   -.222E+01 -.498E+01 0.572E-01   0.954E-04 0.248E-03 -.299E-05
   -.129E+02 0.232E+02 -.445E+02   0.140E+02 -.253E+02 0.484E+02   -.130E+01 0.230E+01 -.446E+01   0.545E-04 -.110E-03 0.241E-03
   -.292E+01 0.297E+01 -.131E+00   0.350E+01 -.334E+01 0.278E+00   0.324E+00 0.900E-01 0.261E+00   -.378E-04 0.901E-04 0.309E-04
 -----------------------------------------------------------------------------------------------
   -.905E+00 0.416E+00 -.334E+00   0.178E-14 0.355E-14 0.000E+00   0.905E+00 -.417E+00 0.334E+00   -.658E-04 0.129E-03 0.361E-04
 
 
 POSITION                                       TOTAL-FORCE (eV/Angst)
 -----------------------------------------------------------------------------------
      5.21491      4.14312      3.67342        -0.042375      0.249879      0.270182
      3.80414      4.89448      4.46764        -0.793979     -0.083485      0.020091
      5.32245      5.75627      4.51187         0.157136     -0.123318     -0.104197
      5.14637      4.25621      5.49061        -0.230536      0.244966     -0.593117
      4.86814      4.75532      4.52840         0.909097     -0.288292      0.407041
 -----------------------------------------------------------------------------------
    total drift:                               -0.000657     -0.000249     -0.000000


--------------------------------------------------------------------------------------------------------



  FREE ENERGIE OF THE ION-ELECTRON SYSTEM (eV)
  ---------------------------------------------------
  free  energy   TOTEN  =       -24.00503662 eV

  energy  without entropy=      -24.00503662  energy(sigma->0) =      -24.00503662
 


--------------------------------------------------------------------------------------------------------


    POTLOK:  cpu time    0.1200: real time    0.1200


--------------------------------------------------------------------------------------------------------


           RANDOM_SEED =         172309572                0                0
           RANDOM_SEED =         172309572               30                0
   IONSTEP:  cpu time    0.0023: real time    0.0023

  ENERGY OF THE ELECTRON-ION-THERMOSTAT SYSTEM (eV)
  ---------------------------------------------------
% ion-electron   TOTEN  =       -24.005037  see above
  kinetic energy EKIN   =         0.000415
  kin. lattice  EKIN_LAT=         0.000000  (temperature    0.80 K)
  nose potential ES     =         0.000000
  nose kinetic   EPS    =         0.000000
  ---------------------------------------------------
  total energy   ETOTAL =       -24.004622 eV

  maximum distance moved by ions :      0.20E-03

    WAVPRE:  cpu time    0.0355: real time    0.0355
    FEWALD:  cpu time    0.0003: real time    0.0003
    ORTHCH:  cpu time    0.0079: real time    0.0079
     LOOP+:  cpu time    6.1735: real time    6.1743


--------------------------------------- Iteration      2(   1)  ---------------------------------------


    POTLOK:  cpu time    0.1195: real time    0.1195
    SETDIJ:  cpu time    0.0015: real time    0.0015
     EDDAV:  cpu time    0.1836: real time    0.1836
       DOS:  cpu time    0.0002: real time    0.0002
    CHARGE:  cpu time    0.0153: real time    0.0153
    MIXING:  cpu time    0.0039: real time    0.0039
    --------------------------------------------
      LOOP:  cpu time    0.3240: real time    0.3241

 eigenvalue-minimisations  :    96
 total energy-change (2. order) :-0.3194973E-02  (-0.3474494E-03)
 number of electron       8.0000000 magnetization 
 augmentation part        0.1845131 magnetization 

 Broyden mixing:
  rms(total) = 0.25796E-02    rms(broyden)= 0.25770E-02
  rms(prec ) = 0.29859E-02
  weight for this iteration     100.00

 Free energy of the ion-electron system (eV)
  ---------------------------------------------------
  alpha Z        PSCENC =         0.24120173
  Ewald energy   TEWEN  =       128.27876646
  -Hartree energ DENC   =      -284.11658823
  -exchange      EXHF   =         0.00000000
  -V(xc)+E(xc)   XCENC  =        24.70983561
  PAW double counting   =       462.95246008     -463.73764916
  entropy T*S    EENTRO =        -0.00000000
  eigenvalues    EBANDS =       -89.37801185
  atomic energy  EATOM  =       197.04175453
  Solvation  Ediel_sol  =         0.00000000
  ---------------------------------------------------
  free energy    TOTEN  =       -24.00823083 eV

  energy without entropy =      -24.00823083  energy(sigma->0) =      -24.00823083


--------------------------------------------------------------------------------------------------------




--------------------------------------- Iteration      2(   2)  ---------------------------------------


    POTLOK:  cpu time    0.1226: real time    0.1226
    SETDIJ:  cpu time    0.0014: real time    0.0014
    EDDIAG:  cpu time    0.0316: real time    0.0316
  RMM-DIIS:  cpu time    0.1406: real time    0.1407
    ORTHCH:  cpu time    0.0015: real time    0.0015
       DOS:  cpu time    0.0002: real time    0.0002
    CHARGE:  cpu time    0.0159: real time    0.0159
    MIXING:  cpu time    0.0039: real time    0.0039
    --------------------------------------------
      LOOP:  cpu time    0.3176: real time    0.3177

 eigenvalue-minimisations  :    64
 total energy-change (2. order) : 0.1351738E-05  (-0.8581053E-05)
 number of electron       8.0000000 magnetization 
 augmentation part        0.1845103 magnetization 

 Broyden mixing:
  rms(total) = 0.16085E-02    rms(broyden)= 0.16077E-02
  rms(prec ) = 0.18616E-02
  weight for this iteration     100.00

 eigenvalues of (default mixing * dielectric matrix)
  average eigenvalue GAMMA=   1.9936
  1.9936

 Free energy of the ion-electron system (eV)
  ---------------------------------------------------
  alpha Z        PSCENC =         0.24120173
  Ewald energy   TEWEN  =       128.27876646
  -Hartree energ DENC   =      -284.12194668
  -exchange      EXHF   =         0.00000000
  -V(xc)+E(xc)   XCENC  =        24.71011327
  PAW double counting   =       462.91621993     -463.70145799
  entropy T*S    EENTRO =        -0.00000000
  eigenvalues    EBANDS =       -89.37288073
  atomic energy  EATOM  =       197.04175453
  Solvation  Ediel_sol  =         0.00000000
  ---------------------------------------------------
  free energy    TOTEN  =       -24.00822948 eV

  energy without entropy =      -24.00822948  energy(sigma->0) =      -24.00822948


--------------------------------------------------------------------------------------------------------




--------------------------------------- Iteration      2(   3)  ---------------------------------------


    POTLOK:  cpu time    0.1202: real time    0.1202
    SETDIJ:  cpu time    0.0015: real time    0.0015
    EDDIAG:  cpu time    0.0316: real time    0.0316
  RMM-DIIS:  cpu time    0.1401: real time    0.1401
    ORTHCH:  cpu time    0.0017: real time    0.0017
       DOS:  cpu time    0.0002: real time    0.0002
    CHARGE:  cpu time    0.0160: real time    0.0160
    MIXING:  cpu time    0.0040: real time    0.0040
    --------------------------------------------
      LOOP:  cpu time    0.3152: real time    0.3153

 eigenvalue-minimisations  :    64
 total energy-change (2. order) : 0.1180816E-05  (-0.1414988E-05)
 number of electron       8.0000000 magnetization 
 augmentation part        0.1845041 magnetization 

 Broyden mixing:
  rms(total) = 0.26648E-03    rms(broyden)= 0.26577E-03
  rms(prec ) = 0.32547E-03
  weight for this iteration     100.00

 eigenvalues of (default mixing * dielectric matrix)
  average eigenvalue GAMMA=   1.6514
  1.0736  2.2292

 Free energy of the ion-electron system (eV)
  ---------------------------------------------------
  alpha Z        PSCENC =         0.24120173
  Ewald energy   TEWEN  =       128.27876646
  -Hartree energ DENC   =      -284.12667088
  -exchange      EXHF   =         0.00000000
  -V(xc)+E(xc)   XCENC  =        24.71035563
  PAW double counting   =       463.00226417     -463.78754934
  entropy T*S    EENTRO =        -0.00000000
  eigenvalues    EBANDS =       -89.36835061
  atomic energy  EATOM  =       197.04175453
  Solvation  Ediel_sol  =         0.00000000
  ---------------------------------------------------
  free energy    TOTEN  =       -24.00822830 eV

  energy without entropy =      -24.00822830  energy(sigma->0) =      -24.00822830


--------------------------------------------------------------------------------------------------------




--------------------------------------- Iteration      2(   4)  ---------------------------------------


    POTLOK:  cpu time    0.1214: real time    0.1214
    SETDIJ:  cpu time    0.0014: real time    0.0014
    EDDIAG:  cpu time    0.0314: real time    0.0314
  RMM-DIIS:  cpu time    0.1113: real time    0.1114
    ORTHCH:  cpu time    0.0014: real time    0.0014
       DOS:  cpu time    0.0002: real time    0.0002
    --------------------------------------------
      LOOP:  cpu time    0.2671: real time    0.2671

 eigenvalue-minimisations  :    48
 total energy-change (2. order) : 0.7292937E-07  (-0.3834839E-07)
 number of electron       8.0000000 magnetization 
 augmentation part        0.1845041 magnetization 

 Free energy of the ion-electron system (eV)
  ---------------------------------------------------
  alpha Z        PSCENC =         0.24120173
  Ewald energy   TEWEN  =       128.27876646
  -Hartree energ DENC   =      -284.12539559
  -exchange      EXHF   =         0.00000000
  -V(xc)+E(xc)   XCENC  =        24.71030220
  PAW double counting   =       463.03613388     -463.82140108
  entropy T*S    EENTRO =        -0.00000000
  eigenvalues    EBANDS =       -89.36959036
  atomic energy  EATOM  =       197.04175453
  Solvation  Ediel_sol  =         0.00000000
  ---------------------------------------------------
  free energy    TOTEN  =       -24.00822822 eV

  energy without entropy =      -24.00822822  energy(sigma->0) =      -24.00822822


--------------------------------------------------------------------------------------------------------




 average (electrostatic) potential at core
  the test charge radii are     0.5201  0.6991
  (the norm of the test charge is              1.0000)
       1 -41.4437       2 -41.6545       3 -41.4674       4 -41.3491       5 -57.9803
 
 
 
 E-fermi :  -8.2167     XC(G=0):  -0.6962     alpha+bet : -0.2098


 k-point     1 :       0.2500    0.2500    0.2500
  band No.  band energies     occupation 
      1     -16.8645      2.00000
      2      -9.3832      2.00000
      3      -9.3030      2.00000
      4      -9.1342      2.00000
      5      -0.3193      0.00000
      6       0.5631      0.00000
      7       0.6727      0.00000
      8       0.6956      0.00000

 k-point     2 :      -0.2500    0.2500    0.2500
  band No.  band energies     occupation 
      1     -16.8645      2.00000
      2      -9.3833      2.00000
      3      -9.3029      2.00000
      4      -9.1342      2.00000
      5      -0.3213      0.00000
      6       0.5605      0.00000
      7       0.6689      0.00000
      8       0.7102      0.00000

 k-point     3 :       0.2500   -0.2500    0.2500
  band No.  band energies     occupation 
      1     -16.8645      2.00000
      2      -9.3833      2.00000
      3      -9.3029      2.00000
      4      -9.1341      2.00000
      5      -0.3225      0.00000
      6       0.5602      0.00000
      7       0.6703      0.00000
      8       0.7186      0.00000

 k-point     4 :      -0.2500   -0.2500    0.2500
  band No.  band energies     occupation 
      1     -16.8645      2.00000
      2      -9.3833      2.00000
      3      -9.3029      2.00000
      4      -9.1341      2.00000
      5      -0.3142      0.00000
      6       0.5516      0.00000
      7       0.6610      0.00000
      8       0.6808      0.00000


--------------------------------------------------------------------------------------------------------


 soft charge-density along one line, spin component           1
         0         1         2         3         4         5         6         7         8         9
 total charge-density along one line
 
 pseudopotential strength for first ion, spin component:           1
 -2.341  -4.033  -0.001  -0.001   0.001
 -4.033  -6.864  -0.003  -0.004   0.002
 -0.001  -0.003  -0.338   0.002  -0.001
 -0.001  -0.004   0.002  -0.336  -0.001
  0.001   0.002  -0.001  -0.001  -0.339
 total augmentation occupancy for first ion, spin component:           1
  3.508  -0.633   0.232   0.324  -0.131
 -0.633   0.127  -0.043  -0.060   0.024
  0.232  -0.043   0.021   0.018  -0.007
  0.324  -0.060   0.018   0.034  -0.010
 -0.131   0.024  -0.007  -0.010   0.013


------------------------ aborting loop because EDIFF is reached ----------------------------------------


    CHARGE:  cpu time    0.0158: real time    0.0158
    FORLOC:  cpu time    0.0102: real time    0.0102
    FORNL :  cpu time    0.0172: real time    0.0172
    STRESS:  cpu time    0.1375: real time    0.1375
    FORCOR:  cpu time    0.1199: real time    0.1200
    FORHAR:  cpu time    0.0388: real time    0.0388
    MIXING:  cpu time    0.0051: real time    0.0051
    OFIELD:  cpu time    0.0000: real time    0.0000

  FORCE on cell =-STRESS in cart. coord.  units (eV):
  Direction    XX          YY          ZZ          XY          YZ          ZX
  --------------------------------------------------------------------------------------
  Alpha Z     0.24120     0.24120     0.24120
  Ewald      45.47041    42.65236    40.15595    -2.34431     1.56822     1.45869
  Hartree    97.06110    94.16134    92.90081    -0.87490     0.43560     0.58038
  E(xc)     -27.18865   -27.16953   -27.17174    -0.01076     0.00580     0.00744
  Local    -200.99332  -195.56385  -192.23471     2.85652    -1.68604    -1.83844
  n-local   -15.92017   -15.81148   -15.75026    -0.01426    -0.00615     0.00240
  augment     0.11269     0.11732     0.12162     0.00251    -0.00242    -0.00136
  Kinetic   101.59032   100.61043   100.62466     0.56730    -0.29299    -0.34432
  Fock        0.00000     0.00000     0.00000     0.00000     0.00000     0.00000
  -------------------------------------------------------------------------------------
  Total       0.37358    -0.76221    -1.11246     0.18210     0.02203    -0.13521
  in kB       0.59595    -1.21591    -1.77464     0.29049     0.03514    -0.21569
  external pressure =       -0.80 kB  Pullay stress =        0.00 kB

  kinetic pressure (ideal gas correction) =      0.00 kB
  total pressure  =     -0.80 kB
  Total+kin.     0.599      -1.215      -1.773       0.290       0.035      -0.215

 VOLUME and BASIS-vectors are now :
 -----------------------------------------------------------------------------
  energy-cutoff  :      400.00
  volume of cell :     1004.35
      direct lattice vectors                 reciprocal lattice vectors
     9.776750964  0.000000000  0.000000000     0.102283469  0.002721835 -0.001730765
    -0.268457895 10.088341322  0.000000000     0.000000000  0.099124323 -0.001045916
     0.169447882  0.107445185 10.182876061     0.000000000  0.000000000  0.098204082

  length of vectors
     9.776750964 10.091912617 10.184852573     0.102334314  0.099129840  0.098204082


 FORCES acting on ions
    electron-ion (+dipol)            ewald-force                    non-local-force                 convergence-correction
 -----------------------------------------------------------------------------------------------
   -.164E+02 0.290E+02 0.404E+02   0.180E+02 -.317E+02 -.443E+02   -.167E+01 0.298E+01 0.414E+01   0.458E-03 -.144E-03 0.458E-03
   0.531E+02 -.679E+01 0.307E+01   -.596E+02 0.749E+01 -.339E+01   0.574E+01 -.788E+00 0.340E+00   0.469E-03 -.315E-03 0.171E-03
   -.219E+02 -.479E+02 0.864E+00   0.243E+02 0.528E+02 -.103E+01   -.222E+01 -.498E+01 0.593E-01   0.476E-03 -.487E-03 0.179E-03
   -.129E+02 0.233E+02 -.446E+02   0.140E+02 -.254E+02 0.485E+02   -.131E+01 0.231E+01 -.448E+01   0.436E-03 -.118E-03 -.277E-03
   -.272E+01 0.285E+01 -.821E-01   0.325E+01 -.320E+01 0.215E+00   0.283E+00 0.105E+00 0.247E+00   0.342E-02 -.199E-02 0.104E-02
 -----------------------------------------------------------------------------------------------
   -.827E+00 0.381E+00 -.311E+00   -.178E-14 0.000E+00 0.711E-14   0.820E+00 -.378E+00 0.309E+00   0.526E-02 -.305E-02 0.157E-02
 
 
 POSITION                                       TOTAL-FORCE (eV/Angst)
 -----------------------------------------------------------------------------------
      5.21481      4.14372      3.67407        -0.036053      0.233489      0.248017
      3.80223      4.89427      4.46769        -0.720390     -0.088779      0.022294
      5.32283      5.75598      4.51161         0.153817     -0.117417     -0.102862
[...]

  ENERGY OF THE ELECTRON-ION-THERMOSTAT SYSTEM (eV)
  ---------------------------------------------------
% ion-electron   TOTEN  =       -24.016935  see above
  kinetic energy EKIN   =         0.012143
  kin. lattice  EKIN_LAT=         0.000000  (temperature   23.49 K)
  nose potential ES     =         0.000000
  nose kinetic   EPS    =         0.000000
  ---------------------------------------------------
  total energy   ETOTAL =       -24.004792 eV

  maximum distance moved by ions :      0.44E-03

    WAVPRE:  cpu time    0.0405: real time    0.0405
    FEWALD:  cpu time    0.0003: real time    0.0003
    ORTHCH:  cpu time    0.0079: real time    0.0079
 Prediction of Wavefunctions ALPHA= 2.171 BETA=-1.207
     LOOP+:  cpu time    1.9466: real time    1.9469


--------------------------------------- Iteration     10(   1)  ---------------------------------------


    POTLOK:  cpu time    0.1189: real time    0.1189
    SETDIJ:  cpu time    0.0015: real time    0.0015
     EDDAV:  cpu time    0.1845: real time    0.1846
       DOS:  cpu time    0.0002: real time    0.0002
    CHARGE:  cpu time    0.0154: real time    0.0154
    MIXING:  cpu time    0.0038: real time    0.0038
    --------------------------------------------
      LOOP:  cpu time    0.3243: real time    0.3244

 eigenvalue-minimisations  :    96
 total energy-change (2. order) : 0.4011091E-02  (-0.3934018E-04)
 number of electron       8.0000000 magnetization 
 augmentation part        0.1859205 magnetization 

 Broyden mixing:
  rms(total) = 0.17564E-03    rms(broyden)= 0.17523E-03
  rms(prec ) = 0.20780E-03
  weight for this iteration     100.00

 Free energy of the ion-electron system (eV)
  ---------------------------------------------------
  alpha Z        PSCENC =         0.24120173
  Ewald energy   TEWEN  =       129.48489987
  -Hartree energ DENC   =      -285.18465488
  -exchange      EXHF   =         0.00000000
  -V(xc)+E(xc)   XCENC  =        24.76666939
  PAW double counting   =       470.60279300     -471.39232658
  entropy T*S    EENTRO =        -0.00000000
  eigenvalues    EBANDS =       -89.57326055
  atomic energy  EATOM  =       197.04175453
  Solvation  Ediel_sol  =         0.00000000
  ---------------------------------------------------
  free energy    TOTEN  =       -24.01292348 eV

  energy without entropy =      -24.01292348  energy(sigma->0) =      -24.01292348


--------------------------------------------------------------------------------------------------------




--------------------------------------- Iteration     10(   2)  ---------------------------------------


    POTLOK:  cpu time    0.1178: real time    0.1178
    SETDIJ:  cpu time    0.0014: real time    0.0014
    EDDIAG:  cpu time    0.0321: real time    0.0321
  RMM-DIIS:  cpu time    0.1403: real time    0.1403
    ORTHCH:  cpu time    0.0015: real time    0.0015
       DOS:  cpu time    0.0002: real time    0.0002
    CHARGE:  cpu time    0.0160: real time    0.0160
    MIXING:  cpu time    0.0038: real time    0.0038
    --------------------------------------------
      LOOP:  cpu time    0.3130: real time    0.3131

 eigenvalue-minimisations  :    64
 total energy-change (2. order) :-0.2802917E-05  (-0.7324132E-06)
 number of electron       8.0000000 magnetization 
 augmentation part        0.1859242 magnetization 

 Broyden mixing:
  rms(total) = 0.21683E-03    rms(broyden)= 0.21664E-03
  rms(prec ) = 0.23714E-03
  weight for this iteration     100.00

 eigenvalues of (default mixing * dielectric matrix)
  average eigenvalue GAMMA=   0.3065
  0.3065

 Free energy of the ion-electron system (eV)
  ---------------------------------------------------
  alpha Z        PSCENC =         0.24120173
  Ewald energy   TEWEN  =       129.48489987
  -Hartree energ DENC   =      -285.18605184
  -exchange      EXHF   =         0.00000000
  -V(xc)+E(xc)   XCENC  =        24.76671297
  PAW double counting   =       470.56615079     -471.35567474
  entropy T*S    EENTRO =        -0.00000000
  eigenvalues    EBANDS =       -89.57191958
  atomic energy  EATOM  =       197.04175453
  Solvation  Ediel_sol  =         0.00000000
  ---------------------------------------------------
  free energy    TOTEN  =       -24.01292628 eV

  energy without entropy =      -24.01292628  energy(sigma->0) =      -24.01292628


--------------------------------------------------------------------------------------------------------




--------------------------------------- Iteration     10(   3)  ---------------------------------------


    POTLOK:  cpu time    0.1186: real time    0.1186
    SETDIJ:  cpu time    0.0015: real time    0.0015
    EDDIAG:  cpu time    0.0313: real time    0.0313
  RMM-DIIS:  cpu time    0.1119: real time    0.1119
    ORTHCH:  cpu time    0.0016: real time    0.0016
       DOS:  cpu time    0.0002: real time    0.0002
    CHARGE:  cpu time    0.0159: real time    0.0159
    MIXING:  cpu time    0.0041: real time    0.0041
    --------------------------------------------
      LOOP:  cpu time    0.2849: real time    0.2850

 eigenvalue-minimisations  :    48
 total energy-change (2. order) :-0.5432899E-06  (-0.1546845E-07)
 number of electron       8.0000000 magnetization 
 augmentation part        0.1859241 magnetization 

 Broyden mixing:
  rms(total) = 0.18945E-03    rms(broyden)= 0.18944E-03
  rms(prec ) = 0.20820E-03
  weight for this iteration     100.00

 eigenvalues of (default mixing * dielectric matrix)
  average eigenvalue GAMMA=   1.8114
  1.0912  2.5315

 Free energy of the ion-electron system (eV)
  ---------------------------------------------------
  alpha Z        PSCENC =         0.24120173
  Ewald energy   TEWEN  =       129.48489987
  -Hartree energ DENC   =      -285.18582574
  -exchange      EXHF   =         0.00000000
  -V(xc)+E(xc)   XCENC  =        24.76670187
  PAW double counting   =       470.54293499     -471.33245760
  entropy T*S    EENTRO =        -0.00000000
  eigenvalues    EBANDS =       -89.57213648
  atomic energy  EATOM  =       197.04175453
  Solvation  Ediel_sol  =         0.00000000
  ---------------------------------------------------
  free energy    TOTEN  =       -24.01292682 eV

  energy without entropy =      -24.01292682  energy(sigma->0) =      -24.01292682


--------------------------------------------------------------------------------------------------------




--------------------------------------- Iteration     10(   4)  ---------------------------------------


    POTLOK:  cpu time    0.1192: real time    0.1192
    SETDIJ:  cpu time    0.0015: real time    0.0015
    EDDIAG:  cpu time    0.0313: real time    0.0313
  RMM-DIIS:  cpu time    0.1104: real time    0.1104
    ORTHCH:  cpu time    0.0014: real time    0.0014
       DOS:  cpu time    0.0002: real time    0.0002
    CHARGE:  cpu time    0.0160: real time    0.0160
    MIXING:  cpu time    0.0042: real time    0.0042
    --------------------------------------------
      LOOP:  cpu time    0.2841: real time    0.2841

 eigenvalue-minimisations  :    48
 total energy-change (2. order) :-0.3704721E-05  (-0.2281778E-07)
 number of electron       8.0000000 magnetization 
 augmentation part        0.1859261 magnetization 

 Broyden mixing:
  rms(total) = 0.35370E-04    rms(broyden)= 0.35354E-04
  rms(prec ) = 0.54002E-04
  weight for this iteration     100.00

 eigenvalues of (default mixing * dielectric matrix)
  average eigenvalue GAMMA=   1.4518
  2.7721  0.9829  0.6005

 Free energy of the ion-electron system (eV)
  ---------------------------------------------------
  alpha Z        PSCENC =         0.24120173
  Ewald energy   TEWEN  =       129.48489987
  -Hartree energ DENC   =      -285.18420174
  -exchange      EXHF   =         0.00000000
  -V(xc)+E(xc)   XCENC  =        24.76662900
  PAW double counting   =       470.40359290     -471.19310362
  entropy T*S    EENTRO =        -0.00000000
  eigenvalues    EBANDS =       -89.57370320
  atomic energy  EATOM  =       197.04175453
  Solvation  Ediel_sol  =         0.00000000
  ---------------------------------------------------
  free energy    TOTEN  =       -24.01293053 eV

  energy without entropy =      -24.01293053  energy(sigma->0) =      -24.01293053


--------------------------------------------------------------------------------------------------------




--------------------------------------- Iteration     10(   5)  ---------------------------------------


    POTLOK:  cpu time    0.1195: real time    0.1195
    SETDIJ:  cpu time    0.0014: real time    0.0014
    EDDIAG:  cpu time    0.0315: real time    0.0315
  RMM-DIIS:  cpu time    0.0968: real time    0.0968
    ORTHCH:  cpu time    0.0014: real time    0.0014
       DOS:  cpu time    0.0002: real time    0.0002
    --------------------------------------------
      LOOP:  cpu time    0.2507: real time    0.2508

 eigenvalue-minimisations  :    33
 total energy-change (2. order) :-0.4978412E-06  (-0.1028937E-09)
 number of electron       8.0000000 magnetization 
 augmentation part        0.1859261 magnetization 

 Free energy of the ion-electron system (eV)
  ---------------------------------------------------
  alpha Z        PSCENC =         0.24120173
  Ewald energy   TEWEN  =       129.48489987
  -Hartree energ DENC   =      -285.18450030
  -exchange      EXHF   =         0.00000000
  -V(xc)+E(xc)   XCENC  =        24.76664372
  PAW double counting   =       470.39329671     -471.18281071
  entropy T*S    EENTRO =        -0.00000000
  eigenvalues    EBANDS =       -89.57341659
  atomic energy  EATOM  =       197.04175453
  Solvation  Ediel_sol  =         0.00000000
  ---------------------------------------------------
  free energy    TOTEN  =       -24.01293103 eV

  energy without entropy =      -24.01293103  energy(sigma->0) =      -24.01293103


--------------------------------------------------------------------------------------------------------




 average (electrostatic) potential at core
  the test charge radii are     0.5201  0.6991
  (the norm of the test charge is              1.0000)
       1 -41.5803       2 -41.3130       3 -41.4910       4 -41.6565       5 -57.9499
 
 
 
 E-fermi :  -8.2373     XC(G=0):  -0.6953     alpha+bet : -0.2098


 k-point     1 :       0.2500    0.2500    0.2500
  band No.  band energies     occupation 
      1     -16.9016      2.00000
      2      -9.3833      2.00000
      3      -9.3264      2.00000
      4      -9.1754      2.00000
      5      -0.3115      0.00000
      6       0.5646      0.00000
      7       0.6776      0.00000
      8       0.6945      0.00000

 k-point     2 :      -0.2500    0.2500    0.2500
  band No.  band energies     occupation 
      1     -16.9016      2.00000
      2      -9.3832      2.00000
      3      -9.3264      2.00000
      4      -9.1755      2.00000
      5      -0.3137      0.00000
      6       0.5633      0.00000
      7       0.6738      0.00000
      8       0.7091      0.00000

 k-point     3 :       0.2500   -0.2500    0.2500
  band No.  band energies     occupation 
      1     -16.9016      2.00000
      2      -9.3833      2.00000
      3      -9.3264      2.00000
      4      -9.1754      2.00000
      5      -0.3151      0.00000
      6       0.5634      0.00000
      7       0.6789      0.00000
      8       0.7150      0.00000

 k-point     4 :      -0.2500   -0.2500    0.2500
  band No.  band energies     occupation 
      1     -16.9015      2.00000
      2      -9.3832      2.00000
      3      -9.3265      2.00000
      4      -9.1754      2.00000
      5      -0.3063      0.00000
      6       0.5488      0.00000
      7       0.6702      0.00000
      8       0.6817      0.00000


--------------------------------------------------------------------------------------------------------


 soft charge-density along one line, spin component           1
         0         1         2         3         4         5         6         7         8         9
 total charge-density along one line
 
 pseudopotential strength for first ion, spin component:           1
 -2.342  -4.035  -0.001  -0.001   0.001
 -4.035  -6.868  -0.003  -0.004   0.002
 -0.001  -0.003  -0.337   0.002  -0.001
 -0.001  -0.004   0.002  -0.335  -0.001
  0.001   0.002  -0.001  -0.001  -0.338
 total augmentation occupancy for first ion, spin component:           1
  3.583  -0.644   0.243   0.343  -0.140
 -0.644   0.130  -0.045  -0.063   0.026
  0.243  -0.045   0.023   0.019  -0.008
  0.343  -0.063   0.019   0.037  -0.011
 -0.140   0.026  -0.008  -0.011   0.014


------------------------ aborting loop because EDIFF is reached ----------------------------------------


    CHARGE:  cpu time    0.0156: real time    0.0156
    FORLOC:  cpu time    0.0102: real time    0.0102
    FORNL :  cpu time    0.0172: real time    0.0172
    STRESS:  cpu time    0.1367: real time    0.1368
    FORCOR:  cpu time    0.1202: real time    0.1202
    FORHAR:  cpu time    0.0391: real time    0.0391
    MIXING:  cpu time    0.0047: real time    0.0047
    OFIELD:  cpu time    0.0000: real time    0.0000

  FORCE on cell =-STRESS in cart. coord.  units (eV):
  Direction    XX          YY          ZZ          XY          YZ          ZX
  --------------------------------------------------------------------------------------
  Alpha Z     0.24120     0.24120     0.24120
  Ewald      44.67025    42.58678    42.22784    -0.97321     0.36035     0.44707
  Hartree    98.28083    94.11306    92.79276    -0.46952     0.28660     0.25813
  E(xc)     -27.23538   -27.23777   -27.24008    -0.00275     0.00275     0.00115
  Local    -202.40559  -195.27766  -193.17122     1.30402    -0.67431    -0.65286
  n-local   -15.87252   -15.97291   -16.01464    -0.00013     0.01573    -0.00233
  augment     0.12196     0.11328     0.10880     0.00114     0.00061    -0.00046
  Kinetic   101.17962   101.32244   101.41694     0.14466    -0.14597    -0.05118
  Fock        0.00000     0.00000     0.00000     0.00000     0.00000     0.00000
  -------------------------------------------------------------------------------------
  Total      -1.01962    -0.11159     0.36161     0.00421    -0.15425    -0.00048
  in kB      -1.62654    -0.17801     0.57685     0.00671    -0.24606    -0.00077
  external pressure =       -0.41 kB  Pullay stress =        0.00 kB

  kinetic pressure (ideal gas correction) =      0.01 kB
  total pressure  =     -0.40 kB
  Total+kin.    -1.612      -0.170       0.586       0.010      -0.245      -0.001

 VOLUME and BASIS-vectors are now :
 -----------------------------------------------------------------------------
  energy-cutoff  :      400.00
  volume of cell :     1004.35
      direct lattice vectors                 reciprocal lattice vectors
     9.776750964  0.000000000  0.000000000     0.102283469  0.002721835 -0.001730765
    -0.268457895 10.088341322  0.000000000     0.000000000  0.099124323 -0.001045916
     0.169447882  0.107445185 10.182876061     0.000000000  0.000000000  0.098204082

  length of vectors
     9.776750964 10.091912617 10.184852573     0.102334314  0.099129840  0.098204082


 FORCES acting on ions
    electron-ion (+dipol)            ewald-force                    non-local-force                 convergence-correction
 -----------------------------------------------------------------------------------------------
   -.168E+02 0.292E+02 0.413E+02   0.187E+02 -.325E+02 -.460E+02   -.178E+01 0.310E+01 0.438E+01   0.951E-04 -.104E-03 -.153E-03
   0.514E+02 -.588E+01 0.278E+01   -.558E+02 0.636E+01 -.302E+01   0.512E+01 -.602E+00 0.277E+00   -.236E-03 0.833E-06 -.159E-04
   -.225E+02 -.479E+02 0.143E+01   0.249E+02 0.529E+02 -.160E+01   -.233E+01 -.499E+01 0.139E+00   0.130E-03 0.150E-03 -.184E-04
   -.129E+02 0.244E+02 -.462E+02   0.144E+02 -.273E+02 0.518E+02   -.139E+01 0.262E+01 -.499E+01   0.923E-04 -.122E-03 0.214E-03
   0.168E+01 -.308E+00 0.947E+00   -.214E+01 0.539E+00 -.115E+01   -.485E+00 0.360E+00 -.111E+00   0.293E-03 -.384E-04 -.100E-03
 -----------------------------------------------------------------------------------------------
   0.867E+00 -.485E+00 0.302E+00   0.000E+00 0.355E-14 0.000E+00   -.868E+00 0.485E+00 -.302E+00   0.374E-03 -.113E-03 -.735E-04
 
 
 POSITION                                       TOTAL-FORCE (eV/Angst)
 -----------------------------------------------------------------------------------
      5.21436      4.15954      3.68864         0.101416     -0.169891     -0.263178
      3.76096      4.88280      4.47089         0.661894     -0.120763      0.037326
      5.33722      5.74652      4.50165         0.046433      0.028748     -0.038251
      5.13029      4.26814      5.45583         0.135810     -0.329975      0.574695
      4.87189      4.75474      4.53061        -0.945922      0.591858     -0.310258
 -----------------------------------------------------------------------------------
    total drift:                               -0.000369     -0.000023      0.000334


--------------------------------------------------------------------------------------------------------



  FREE ENERGIE OF THE ION-ELECTRON SYSTEM (eV)
  ---------------------------------------------------
  free  energy   TOTEN  =       -24.01293103 eV

  energy  without entropy=      -24.01293103  energy(sigma->0) =      -24.01293103
 
 d Force =-0.4004464E-02[-0.449E-02,-0.352E-02]  d Energy =-0.4003507E-02-0.958E-06
 d Force =-0.1323780E+00[-0.133E+00,-0.132E+00]  d Ewald  =-0.1323775E+00-0.480E-06


--------------------------------------------------------------------------------------------------------


    POTLOK:  cpu time    0.1232: real time    0.1232


--------------------------------------------------------------------------------------------------------


           RANDOM_SEED =         172309572               30                0
   IONSTEP:  cpu time    0.0001: real time    0.0001

  ENERGY OF THE ELECTRON-ION-THERMOSTAT SYSTEM (eV)
  ---------------------------------------------------
% ion-electron   TOTEN  =       -24.012931  see above
  kinetic energy EKIN   =         0.008233
  kin. lattice  EKIN_LAT=         0.000000  (temperature   15.92 K)
  nose potential ES     =         0.000000
  nose kinetic   EPS    =         0.000000
  ---------------------------------------------------
  total energy   ETOTAL =       -24.004698 eV

  maximum distance moved by ions :      0.36E-03


 mean value of Nose-termostat <S>:     1.000 mean value of <T> :    24.065
 mean temperature <T/S>/<1/S>  :    24.065

    WAVPRE:  cpu time    0.0438: real time    0.0438
    FEWALD:  cpu time    0.0003: real time    0.0003
    ORTHCH:  cpu time    0.0079: real time    0.0079
 Prediction of Wavefunctions ALPHA= 2.100 BETA=-1.126
    POTLOK:  cpu time    0.1201: real time    0.1202
    EDDIAG:  cpu time    0.0320: real time    0.0320
     LOOP+:  cpu time    2.1322: real time    2.1325
    4ORBIT:  cpu time    0.0000: real time    0.0000

 total amount of memory used by VASP MPI-rank0    54141. kBytes
=======================================================================

   base      :      30000. kBytes
   nonl-proj :       2701. kBytes
   fftplans  :       7644. kBytes
   grid      :      12032. kBytes
   one-center:          6. kBytes
   wavefun   :       1758. kBytes
 
  
  
 General timing and accounting informations for this job:
 ========================================================
  
                  Total CPU time used (sec):       25.250
                            User time (sec):       23.830
                          System time (sec):        1.420
                         Elapsed time (sec):       25.504
  
                   Maximum memory used (kb):      176780.
                   Average memory used (kb):           0.
  
                          Minor page faults:       236873
                          Major page faults:            0
                 Voluntary context switches:           76
