 vasp.5.4.4.18Apr17-6-g9f103f2a35 (build Jul 09 2021 13:05:15) complex          
  
 executed on             LinuxIFC date 2021.11.04  19:03:53
 running on   16 total cores
 distrk:  each k-point on   16 cores,    1 groups
 distr:  one band on NCORES_PER_BAND=   4 cores,    4 groups


--------------------------------------------------------------------------------------------------------


 INCAR:
 POTCAR:    PAW_PBE H 15Jun2001                   
 POTCAR:    PAW_PBE C 08Apr2002                   
 POTCAR:    PAW_PBE H 15Jun2001                   
   VRHFIN =H: ultrasoft test                                                    
   LEXCH  = PE                                                                  
   EATOM  =    12.4884 eV,    0.9179 Ry                                         
                                                                                
   TITEL  = PAW_PBE H 15Jun2001                                                 
   LULTRA =        F    use ultrasoft PP ?                                      
   IUNSCR =        0    unscreen: 0-lin 1-nonlin 2-no                           
   RPACOR =    0.000    partial core radius                                     
   POMASS =    1.000; ZVAL   =    1.000    mass and valenz                      
   RCORE  =    1.100    outmost cutoff radius                                   
   RWIGS  =    0.700; RWIGS  =    0.370    wigner-seitz radius (au A)           
   ENMAX  =  250.000; ENMIN  =  200.000 eV                                      
   RCLOC  =    0.701    cutoff for local pot                                    
   LCOR   =        T    correct aug charges                                     
   LPAW   =        T    paw PP                                                  
   EAUG   =  400.000                                                            
   RMAX   =    1.123    core radius for proj-oper                               
   RAUG   =    1.200    factor for augmentation sphere                          
   RDEP   =    1.112    radius for radial grids                                 
   RDEPT  =    0.926    core radius for aug-charge                              
                                                                                
   Atomic configuration                                                         
    2 entries                                                                   
     n  l   j            E        occ.                                          
     1  0  0.50        -6.4927   1.0000                                         
     2  1  0.50        -3.4015   0.0000                                         
   Description                                                                  
     l       E           TYP  RCUT    TYP  RCUT                                 
     0     -6.4927494     23  1.100                                             
     0      6.8029130     23  1.100                                             
     1     -4.0817478     23  1.100                                             
  local pseudopotential read in
  atomic valenz-charges read in
  non local Contribution for L=           0  read in
    real space projection operators read in
  non local Contribution for L=           0  read in
    real space projection operators read in
  non local Contribution for L=           1  read in
    real space projection operators read in
    PAW grid and wavefunctions read in
 
   number of l-projection  operators is LMAX  =           3
   number of lm-projection operators is LMMAX =           5
 
 POTCAR:    PAW_PBE C 08Apr2002                   
   VRHFIN =C: s2p2                                                              
   LEXCH  = PE                                                                  
   EATOM  =   147.1560 eV,   10.8157 Ry                                         
                                                                                
   TITEL  = PAW_PBE C 08Apr2002                                                 
   LULTRA =        F    use ultrasoft PP ?                                      
   IUNSCR =        1    unscreen: 0-lin 1-nonlin 2-no                           
   RPACOR =    1.200    partial core radius                                     
   POMASS =   12.011; ZVAL   =    4.000    mass and valenz                      
   RCORE  =    1.500    outmost cutoff radius                                   
   RWIGS  =    1.630; RWIGS  =    0.863    wigner-seitz radius (au A)           
   ENMAX  =  400.000; ENMIN  =  300.000 eV                                      
   ICORE  =        2    local potential                                         
   LCOR   =        T    correct aug charges                                     
   LPAW   =        T    paw PP                                                  
   EAUG   =  644.873                                                            
   DEXC   =    0.000                                                            
   RMAX   =    1.529    core radius for proj-oper                               
   RAUG   =    1.300    factor for augmentation sphere                          
   RDEP   =    1.501    radius for radial grids                                 
   RDEPT  =    1.300    core radius for aug-charge                              
                                                                                
   Atomic configuration                                                         
    4 entries                                                                   
     n  l   j            E        occ.                                          
     1  0  0.50      -273.3789   2.0000                                         
     2  0  0.50       -13.7508   2.0000                                         
     2  1  0.50        -5.2854   2.0000                                         
     3  2  1.50        -5.4423   0.0000                                         
   Description                                                                  
     l       E           TYP  RCUT    TYP  RCUT                                 
     0    -13.7508458     23  1.200                                             
     0     -8.2022199     23  1.200                                             
     1     -5.2854383     23  1.500                                             
     1     34.0145650     23  1.500                                             
     2     -5.4423304      7  1.500                                             
  local pseudopotential read in
  partial core-charges read in
  partial kinetic energy density read in
  atomic valenz-charges read in
  non local Contribution for L=           0  read in
    real space projection operators read in
  non local Contribution for L=           0  read in
    real space projection operators read in
  non local Contribution for L=           1  read in
    real space projection operators read in
  non local Contribution for L=           1  read in
    real space projection operators read in
    PAW grid and wavefunctions read in
 
   number of l-projection  operators is LMAX  =           4
   number of lm-projection operators is LMMAX =           8
 
  PAW_PBE H 15Jun2001                   :
 energy of atom  1       EATOM=  -12.4884
 kinetic energy error for atom=    0.0098 (will be added to EATOM!!)
  PAW_PBE C 08Apr2002                   :
 energy of atom  2       EATOM= -147.1560
 kinetic energy error for atom=    0.0288 (will be added to EATOM!!)
 
 
 POSCAR:  H  C                                   
  positions in cartesian coordinates
  No initial velocities read in
 exchange correlation table for  LEXCH =        8
   RHO(1)=    0.500       N(1)  =     2000
   RHO(2)=  100.500       N(2)  =     4000
 


--------------------------------------------------------------------------------------------------------


 ion  position               nearest neighbor table
   1  0.538  0.407  0.361-   5 1.11
   2  0.394  0.481  0.438-   5 1.12
   3  0.553  0.566  0.442-   5 1.10
   4  0.528  0.416  0.539-   5 1.12
   5  0.503  0.467  0.446-   3 1.10   1 1.11   4 1.12   2 1.12
 

IMPORTANT INFORMATION: All symmetrisations will be switched off!
NOSYMM: (Re-)initialisation of all symmetry stuff for point group C_1.

 
 

Automatic generation of k-mesh.
 generate k-points for:    2    2    2
Space group operators:
 irot       det(A)        alpha          n_x          n_y          n_z        tau_x        tau_y        tau_z
    1     1.000000     0.000000     1.000000     0.000000     0.000000     0.000000     0.000000     0.000000
 
 Subroutine IBZKPT returns following result:
 ===========================================
 
 Found      4 irreducible k-points:
 
 Following reciprocal coordinates:
            Coordinates               Weight
  0.250000  0.250000  0.250000      2.000000
 -0.250000  0.250000  0.250000      2.000000
  0.250000 -0.250000  0.250000      2.000000
 -0.250000 -0.250000  0.250000      2.000000
 
 Following cartesian coordinates:
            Coordinates               Weight
  0.024412  0.025457  0.025193      2.000000
 -0.024412  0.024688  0.024815      2.000000
  0.024412 -0.024688  0.024398      2.000000
 -0.024412 -0.025457  0.024019      2.000000
 


--------------------------------------------------------------------------------------------------------




 Dimension of arrays:
   k-points           NKPTS =      4   k-points in BZ     NKDIM =      4   number of bands    NBANDS=      8
   number of dos      NEDOS =    301   number of ions     NIONS =      5
   non local maximal  LDIM  =      4   non local SUM 2l+1 LMDIM =      8
   total plane-waves  NPLWV = 343000
   max r-space proj   IRMAX =      1   max aug-charges    IRDMAX=   4101
   dimension x,y,z NGX =    70 NGY =   70 NGZ =   70
   dimension x,y,z NGXF=   140 NGYF=  140 NGZF=  140
   support grid    NGXF=   140 NGYF=  140 NGZF=  140
   ions per type =               4   1
   NGX,Y,Z   is equivalent  to a cutoff of  11.36, 11.67, 11.45 a.u.
   NGXF,Y,Z  is equivalent  to a cutoff of  22.73, 23.34, 22.90 a.u.

 SYSTEM =  unknown system                          
 POSCAR =   H  C                                   

 Startparameter for this run:
   NWRITE =      2    write-flag & timer
   PREC   = a         normal or accurate (medium, high low for compatibility)
   ISTART =      0    job   : 0-new  1-cont  2-samecut
   ICHARG =      2    charge: 1-file 2-atom 10-const
   ISPIN  =      1    spin polarized calculation?
   LNONCOLLINEAR =      F non collinear calculations
   LSORBIT =      F    spin-orbit coupling
   INIWAV =      1    electr: 0-lowe 1-rand  2-diag
   LASPH  =      F    aspherical Exc in radial PAW
   METAGGA=      F    non-selfconsistent MetaGGA calc.

 Electronic Relaxation 1
   ENCUT  =  400.0 eV  29.40 Ry    5.42 a.u.  16.70 16.26 16.57*2*pi/ulx,y,z
   ENINI  =  400.0     initial cutoff
   ENAUG  =  644.9 eV  augmentation charge cutoff
   NELM   =    120;   NELMIN=  4; NELMDL= -5     # of ELM steps 
   EDIFF  = 0.1E-05   stopping-criterion for ELM
   LREAL  =      F    real-space projection
   NLSPLINE    = F    spline interpolate recip. space projectors
   LCOMPAT=      F    compatible to vasp.4.4
   GGA_COMPAT  = T    GGA compatible to vasp.4.4-vasp.4.6
   LMAXPAW     = -100 max onsite density
   LMAXMIX     =    2 max onsite mixed and CHGCAR
   VOSKOWN=      0    Vosko Wilk Nusair interpolation
   ROPT   =    0.00000   0.00000
 Ionic relaxation
   EDIFFG = 0.1E-04   stopping-criterion for IOM
   NSW    =     10    number of steps for IOM
   NBLOCK =      1;   KBLOCK =     10    inner block; outer block 
   IBRION =      0    ionic relax: 0-MD 1-quasi-New 2-CG
   NFREE  =      0    steps in history (QN), initial steepest desc. (CG)
   ISIF   =      2    stress and relaxation
   IWAVPR =     12    prediction:  0-non 1-charg 2-wave 3-comb
   ISYM   =      0    0-nonsym 1-usesym 2-fastsym
   LCORR  =      T    Harris-Foulkes like correction to forces

   POTIM  = 0.5000    time-step for ionic-motion
   TEIN   =    0.0    initial temperature
   TEBEG  =    0.0;   TEEND  =   0.0 temperature during run
   SMASS  =  -3.00    Nose mass-parameter (am)
   estimated Nose-frequenzy (Omega)   =  0.10E-29 period in steps =****** mass=  -0.240E-26a.u.
   SCALEE = 1.0000    scale energy and forces
   NPACO  =    256;   APACO  = 16.0  distance and # of slots for P.C.
   PSTRESS=    0.0 pullay stress

  Mass of Ions in am
   POMASS =   1.00 12.01
  Ionic Valenz
   ZVAL   =   1.00  4.00
  Atomic Wigner-Seitz radii
   RWIGS  =  -1.00 -1.00
  virtual crystal weights 
   VCA    =   1.00  1.00
   NELECT =       8.0000    total number of electrons
   NUPDOWN=      -1.0000    fix difference up-down

 DOS related values:
   EMIN   =  10.00;   EMAX   =-10.00  energy-range for DOS
   EFERMI =   0.00
   ISMEAR =     0;   SIGMA  =   0.20  broadening in eV -4-tet -1-fermi 0-gaus

 Electronic relaxation 2 (details)
   IALGO  =     68    algorithm
   LDIAG  =      T    sub-space diagonalisation (order eigenvalues)
   LSUBROT=      F    optimize rotation matrix (better conditioning)
   TURBO    =      0    0=normal 1=particle mesh
   IRESTART =      0    0=no restart 2=restart with 2 vectors
   NREBOOT  =      0    no. of reboots
   NMIN     =      0    reboot dimension
   EREF     =   0.00    reference energy to select bands
   IMIX   =      4    mixing-type and parameters
     AMIX     =   0.40;   BMIX     =  1.00
     AMIX_MAG =   1.60;   BMIX_MAG =  1.00
     AMIN     =   0.10
     WC   =   100.;   INIMIX=   1;  MIXPRE=   1;  MAXMIX= -45

 Intra band minimization:
   WEIMIN = 0.0010     energy-eigenvalue tresh-hold
   EBREAK =  0.31E-07  absolut break condition
   DEPER  =   0.30     relativ break condition  

   TIME   =   0.40     timestep for ELM

  volume/ion in A,a.u.               =     207.50      1400.25
  Fermi-wavevector in a.u.,A,eV,Ry     =   0.323429  0.611192  1.423254  0.104606
  Thomas-Fermi vector in A             =   1.212672
 
 Write flags
   LWAVE        =      F    write WAVECAR
   LDOWNSAMPLE  =      F    k-point downsampling of WAVECAR
   LCHARG       =      F    write CHGCAR
   LVTOT        =      F    write LOCPOT, total local potential
   LVHAR        =      F    write LOCPOT, Hartree potential only
   LELF         =      F    write electronic localiz. function (ELF)
   LORBIT       =      0    0 simple, 1 ext, 2 COOP (PROOUT), +10 PAW based schemes


 Dipole corrections
   LMONO  =      F    monopole corrections only (constant potential shift)
   LDIPOL =      F    correct potential (dipole corrections)
   IDIPOL =      0    1-x, 2-y, 3-z, 4-all directions 
   EPSILON=  1.0000000 bulk dielectric constant

 Exchange correlation treatment:
   GGA     =    --    GGA type
   LEXCH   =     8    internal setting for exchange type
   VOSKOWN=      0    Vosko Wilk Nusair interpolation
   LHFCALC =     F    Hartree Fock is set to
   LHFONE  =     F    Hartree Fock one center treatment
   AEXX    =    0.0000 exact exchange contribution

 Linear response parameters
   LEPSILON=     F    determine dielectric tensor
   LRPA    =     F    only Hartree local field effects (RPA)
   LNABLA  =     F    use nabla operator in PAW spheres
   LVEL    =     F    velocity operator in full k-point grid
   LINTERFAST=   F  fast interpolation
   KINTER  =     0    interpolate to denser k-point grid
   CSHIFT  =0.1000    complex shift for real part using Kramers Kronig
   OMEGAMAX=  -1.0    maximum frequency
   DEG_THRESHOLD= 0.2000000E-02 threshold for treating states as degnerate
   RTIME   =   -0.100 relaxation time in fs
  (WPLASMAI=    0.000 imaginary part of plasma frequency in eV, 0.658/RTIME)
   DFIELD  = 0.0000000 0.0000000 0.0000000 field for delta impulse in time
 
 Orbital magnetization related:
   ORBITALMAG=     F  switch on orbital magnetization
   LCHIMAG   =     F  perturbation theory with respect to B field
   DQ        =  0.001000  dq finite difference perturbation B field
   LLRAUG    =     F  two centre corrections for induced B field



--------------------------------------------------------------------------------------------------------


 molecular dynamics for ions
   using a microcanonical ensemble
 charge density and potential will be updated during run
 non-spin polarized calculation
 RMM-DIIS sequential band-by-band and
  variant of blocked Davidson during initial phase
 perform sub-space diagonalisation
    before iterative eigenvector-optimisation
 modified Broyden-mixing scheme, WC =      100.0
 initial mixing is a Kerker type mixing with AMIX =  0.4000 and BMIX =      1.0000
 Hartree-type preconditioning will be used
 using additional bands            4
 reciprocal scheme for non local part
 use partial core corrections
 calculate Harris-corrections to forces 
   (improved forces if not selfconsistent)
 use gradient corrections 
 use of overlap-Matrix (Vanderbilt PP)
 Gauss-broadening in eV      SIGMA  =   0.20


--------------------------------------------------------------------------------------------------------


  energy-cutoff  :      400.00
  volume of cell :     1037.48
      direct lattice vectors                 reciprocal lattice vectors
    10.240930956  0.000000000  0.000000000     0.097647373  0.001538401  0.000757266
    -0.157090214  9.971030671  0.000000000     0.000000000  0.100290535  0.001591215
    -0.076253121 -0.161200944 10.160113665     0.000000000  0.000000000  0.098424096

  length of vectors
    10.240930956  9.972268046 10.161678502     0.097662426  0.100303157  0.098424096


 
 k-points in units of 2pi/SCALE and weight: read from INCAR                         
   0.02441184  0.02545723  0.02519314       0.250
  -0.02441184  0.02468803  0.02481451       0.250
   0.02441184 -0.02468803  0.02439754       0.250
  -0.02441184 -0.02545723  0.02401890       0.250
 
 k-points in reciprocal lattice and weights: read from INCAR                         
   0.25000000  0.25000000  0.25000000       0.250
  -0.25000000  0.25000000  0.25000000       0.250
   0.25000000 -0.25000000  0.25000000       0.250
  -0.25000000 -0.25000000  0.25000000       0.250
 
 position of ions in fractional coordinates (direct lattice) 
   0.53798928  0.40699130  0.36056671
   0.39433750  0.48058343  0.43849113
   0.55260412  0.56587087  0.44233863
   0.52814134  0.41624370  0.53940283
   0.50258625  0.46719940  0.44552016
 
 position of ions in cartesian coordinates  (Angst):
   5.41808234  3.99999908  3.66339874
   3.92945179  4.72122696  4.45511976
   5.53655816  5.57101040  4.49421071
   5.30214000  4.06342644  5.48039409
   5.03958629  4.58664124  4.52653547
 


--------------------------------------------------------------------------------------------------------


 k-point  1 :   0.2500 0.2500 0.2500  plane waves:   18857
 k-point  2 :  -0.2500 0.2500 0.2500  plane waves:   18836
 k-point  3 :   0.2500-0.2500 0.2500  plane waves:   18825
 k-point  4 :  -0.2500-0.2500 0.2500  plane waves:   18832

 maximum and minimum number of plane-waves per node :      4722     4696

 maximum number of plane-waves:     18857
 maximum index in each direction: 
   IXMAX=   16   IYMAX=   16   IZMAX=   16
   IXMIN=  -16   IYMIN=  -16   IZMIN=  -16


 parallel 3D FFT for wavefunctions:
    minimum data exchange during FFTs selected (reduces bandwidth)
 parallel 3D FFT for charge:
    minimum data exchange during FFTs selected (reduces bandwidth)


 total amount of memory used by VASP MPI-rank0    55501. kBytes
=======================================================================

   base      :      30000. kBytes
   nonl-proj :       2787. kBytes
   fftplans  :       8577. kBytes
   grid      :      13527. kBytes
   one-center:          6. kBytes
   wavefun   :        604. kBytes
 
     INWAV:  cpu time    0.0000: real time    0.0000
 Broyden mixing: mesh for mixing (old mesh)
   NGX = 33   NGY = 33   NGZ = 33
  (NGX  =140   NGY  =140   NGZ  =140)
  gives a total of  35937 points

 initial charge density was supplied:
 charge density of overlapping atoms calculated
 number of electron       8.0000000 magnetization 
 keeping initial charge density in first step


--------------------------------------------------------------------------------------------------------


 Maximum index for augmentation-charges          165 (set IRDMAX)


--------------------------------------------------------------------------------------------------------


 First call to EWALD:  gamma=   0.175
 Maximum number of real-space cells 3x 3x 3
 Maximum number of reciprocal cells 3x 3x 3

    FEWALD:  cpu time    0.0015: real time    0.0015


--------------------------------------- Iteration      1(   1)  ---------------------------------------


    POTLOK:  cpu time    0.1417: real time    0.1417
    SETDIJ:  cpu time    0.0015: real time    0.0014
     EDDAV:  cpu time    0.2074: real time    0.2074
       DOS:  cpu time    0.0002: real time    0.0002
    --------------------------------------------
      LOOP:  cpu time    0.3508: real time    0.3508

 eigenvalue-minimisations  :    96
 total energy-change (2. order) : 0.1527961E+02  (-0.1924612E+03)
 number of electron       8.0000000 magnetization 
 augmentation part        8.0000000 magnetization 

 Free energy of the ion-electron system (eV)
  ---------------------------------------------------
  alpha Z        PSCENC =         0.23350014
  Ewald energy   TEWEN  =       126.52682273
  -Hartree energ DENC   =      -243.53811152
  -exchange      EXHF   =         0.00000000
  -V(xc)+E(xc)   XCENC  =        21.91927621
  PAW double counting   =       117.05815612     -117.66307307
  entropy T*S    EENTRO =        -0.03026251
  eigenvalues    EBANDS =       -86.26845239
  atomic energy  EATOM  =       197.04175453
  Solvation  Ediel_sol  =         0.00000000
  ---------------------------------------------------
  free energy    TOTEN  =        15.27961024 eV

  energy without entropy =       15.30987275  energy(sigma->0) =       15.29474150


--------------------------------------------------------------------------------------------------------




--------------------------------------- Iteration      1(   2)  ---------------------------------------


     EDDAV:  cpu time    0.1684: real time    0.1689
       DOS:  cpu time    0.0002: real time    0.0002
    --------------------------------------------
      LOOP:  cpu time    0.1686: real time    0.1691

 eigenvalue-minimisations  :    72
 total energy-change (2. order) :-0.3769516E+02  (-0.3710898E+02)
 number of electron       8.0000000 magnetization 
 augmentation part        8.0000000 magnetization 

 Free energy of the ion-electron system (eV)
  ---------------------------------------------------
  alpha Z        PSCENC =         0.23350014
  Ewald energy   TEWEN  =       126.52682273
  -Hartree energ DENC   =      -243.53811152
  -exchange      EXHF   =         0.00000000
  -V(xc)+E(xc)   XCENC  =        21.91927621
  PAW double counting   =       117.05815612     -117.66307307
  entropy T*S    EENTRO =        -0.00000000
  eigenvalues    EBANDS =      -123.99387316
  atomic energy  EATOM  =       197.04175453
  Solvation  Ediel_sol  =         0.00000000
  ---------------------------------------------------
  free energy    TOTEN  =       -22.41554802 eV

  energy without entropy =      -22.41554802  energy(sigma->0) =      -22.41554802


--------------------------------------------------------------------------------------------------------




--------------------------------------- Iteration      1(   3)  ---------------------------------------


     EDDAV:  cpu time    0.1550: real time    0.1550
       DOS:  cpu time    0.0002: real time    0.0002
    --------------------------------------------
      LOOP:  cpu time    0.1552: real time    0.1552

 eigenvalue-minimisations  :    64
 total energy-change (2. order) :-0.4677888E+01  (-0.4677888E+01)
 number of electron       8.0000000 magnetization 
 augmentation part        8.0000000 magnetization 

 Free energy of the ion-electron system (eV)
  ---------------------------------------------------
  alpha Z        PSCENC =         0.23350014
  Ewald energy   TEWEN  =       126.52682273
  -Hartree energ DENC   =      -243.53811152
  -exchange      EXHF   =         0.00000000
  -V(xc)+E(xc)   XCENC  =        21.91927621
  PAW double counting   =       117.05815612     -117.66307307
  entropy T*S    EENTRO =        -0.00000000
  eigenvalues    EBANDS =      -128.67176113
  atomic energy  EATOM  =       197.04175453
  Solvation  Ediel_sol  =         0.00000000
  ---------------------------------------------------
  free energy    TOTEN  =       -27.09343599 eV

  energy without entropy =      -27.09343599  energy(sigma->0) =      -27.09343599


--------------------------------------------------------------------------------------------------------




--------------------------------------- Iteration      1(   4)  ---------------------------------------


     EDDAV:  cpu time    0.2583: real time    0.2583
       DOS:  cpu time    0.0002: real time    0.0002
    --------------------------------------------
      LOOP:  cpu time    0.2585: real time    0.2585

 eigenvalue-minimisations  :   128
 total energy-change (2. order) :-0.2179752E+00  (-0.2179752E+00)
 number of electron       8.0000000 magnetization 
 augmentation part        8.0000000 magnetization 

 Free energy of the ion-electron system (eV)
  ---------------------------------------------------
  alpha Z        PSCENC =         0.23350014
  Ewald energy   TEWEN  =       126.52682273
  -Hartree energ DENC   =      -243.53811152
  -exchange      EXHF   =         0.00000000
  -V(xc)+E(xc)   XCENC  =        21.91927621
  PAW double counting   =       117.05815612     -117.66307307
  entropy T*S    EENTRO =        -0.00000000
  eigenvalues    EBANDS =      -128.88973630
  atomic energy  EATOM  =       197.04175453
  Solvation  Ediel_sol  =         0.00000000
  ---------------------------------------------------
  free energy    TOTEN  =       -27.31141115 eV

  energy without entropy =      -27.31141115  energy(sigma->0) =      -27.31141115


--------------------------------------------------------------------------------------------------------




--------------------------------------- Iteration      1(   5)  ---------------------------------------


     EDDAV:  cpu time    0.2060: real time    0.2060
       DOS:  cpu time    0.0002: real time    0.0002
    CHARGE:  cpu time    0.0202: real time    0.0202
    MIXING:  cpu time    0.0041: real time    0.0041
    --------------------------------------------
      LOOP:  cpu time    0.2305: real time    0.2305

 eigenvalue-minimisations  :    96
 total energy-change (2. order) :-0.8855706E-04  (-0.8855742E-04)
 number of electron       8.0000001 magnetization 
 augmentation part        0.2193037 magnetization 

 Broyden mixing:
  rms(total) = 0.84211E+00    rms(broyden)= 0.84190E+00
  rms(prec ) = 0.11909E+01
  weight for this iteration     100.00

 Free energy of the ion-electron system (eV)
  ---------------------------------------------------
  alpha Z        PSCENC =         0.23350014
  Ewald energy   TEWEN  =       126.52682273
  -Hartree energ DENC   =      -243.53811152
  -exchange      EXHF   =         0.00000000
  -V(xc)+E(xc)   XCENC  =        21.91927621
  PAW double counting   =       117.05815612     -117.66307307
  entropy T*S    EENTRO =        -0.00000000
  eigenvalues    EBANDS =      -128.88982485
  atomic energy  EATOM  =       197.04175453
  Solvation  Ediel_sol  =         0.00000000
  ---------------------------------------------------
  free energy    TOTEN  =       -27.31149971 eV

  energy without entropy =      -27.31149970  energy(sigma->0) =      -27.31149970


--------------------------------------------------------------------------------------------------------




--------------------------------------- Iteration      1(   6)  ---------------------------------------


    POTLOK:  cpu time    0.1376: real time    0.1376
    SETDIJ:  cpu time    0.0015: real time    0.0015
    EDDIAG:  cpu time    0.0393: real time    0.0393
  RMM-DIIS:  cpu time    0.1606: real time    0.1607
    ORTHCH:  cpu time    0.0014: real time    0.0014
       DOS:  cpu time    0.0002: real time    0.0002
    CHARGE:  cpu time    0.0194: real time    0.0194
    MIXING:  cpu time    0.0043: real time    0.0043
    --------------------------------------------
      LOOP:  cpu time    0.3643: real time    0.3643

 eigenvalue-minimisations  :    64
 total energy-change (2. order) : 0.2706031E+01  (-0.4940625E+00)
 number of electron       8.0000000 magnetization 
 augmentation part        0.1933287 magnetization 

 Broyden mixing:
  rms(total) = 0.41673E+00    rms(broyden)= 0.41663E+00
  rms(prec ) = 0.53844E+00
  weight for this iteration     100.00

 eigenvalues of (default mixing * dielectric matrix)
  average eigenvalue GAMMA=   1.2930
  1.2930

 Free energy of the ion-electron system (eV)
  ---------------------------------------------------
  alpha Z        PSCENC =         0.23350014
  Ewald energy   TEWEN  =       126.52682273
  -Hartree energ DENC   =      -262.61879122
  -exchange      EXHF   =         0.00000000
  -V(xc)+E(xc)   XCENC  =        23.07788275
  PAW double counting   =       232.98059308     -233.75139752
  entropy T*S    EENTRO =        -0.00000000
  eigenvalues    EBANDS =      -108.09583301
  atomic energy  EATOM  =       197.04175453
  Solvation  Ediel_sol  =         0.00000000
  ---------------------------------------------------
  free energy    TOTEN  =       -24.60546853 eV

  energy without entropy =      -24.60546853  energy(sigma->0) =      -24.60546853


--------------------------------------------------------------------------------------------------------




--------------------------------------- Iteration      1(   7)  ---------------------------------------


    POTLOK:  cpu time    0.1382: real time    0.1382
    SETDIJ:  cpu time    0.0015: real time    0.0015
    EDDIAG:  cpu time    0.0368: real time    0.0368
  RMM-DIIS:  cpu time    0.1569: real time    0.1569
    ORTHCH:  cpu time    0.0014: real time    0.0014
       DOS:  cpu time    0.0002: real time    0.0002
    CHARGE:  cpu time    0.0184: real time    0.0184
    MIXING:  cpu time    0.0044: real time    0.0044
    --------------------------------------------
      LOOP:  cpu time    0.3578: real time    0.3578

 eigenvalue-minimisations  :    64
 total energy-change (2. order) : 0.4583868E+00  (-0.1053624E+00)
 number of electron       8.0000000 magnetization 
 augmentation part        0.1835162 magnetization 

 Broyden mixing:
  rms(total) = 0.22304E+00    rms(broyden)= 0.22299E+00
  rms(prec ) = 0.26999E+00
  weight for this iteration     100.00

 eigenvalues of (default mixing * dielectric matrix)
  average eigenvalue GAMMA=   1.8375
  1.4369  2.2381

 Free energy of the ion-electron system (eV)
  ---------------------------------------------------
  alpha Z        PSCENC =         0.23350014
  Ewald energy   TEWEN  =       126.52682273
  -Hartree energ DENC   =      -273.66362840
  -exchange      EXHF   =         0.00000000
  -V(xc)+E(xc)   XCENC  =        23.89489066
  PAW double counting   =       350.31993551     -351.12500022
  entropy T*S    EENTRO =        -0.00000000
  eigenvalues    EBANDS =       -97.37535673
  atomic energy  EATOM  =       197.04175453
  Solvation  Ediel_sol  =         0.00000000
  ---------------------------------------------------
  free energy    TOTEN  =       -24.14708177 eV

  energy without entropy =      -24.14708177  energy(sigma->0) =      -24.14708177


--------------------------------------------------------------------------------------------------------




--------------------------------------- Iteration      1(   8)  ---------------------------------------


    POTLOK:  cpu time    0.1377: real time    0.1377
    SETDIJ:  cpu time    0.0014: real time    0.0014
    EDDIAG:  cpu time    0.0366: real time    0.0366
  RMM-DIIS:  cpu time    0.1585: real time    0.1585
    ORTHCH:  cpu time    0.0014: real time    0.0014
       DOS:  cpu time    0.0002: real time    0.0002
    CHARGE:  cpu time    0.0181: real time    0.0181
    MIXING:  cpu time    0.0044: real time    0.0044
    --------------------------------------------
      LOOP:  cpu time    0.3583: real time    0.3583

 eigenvalue-minimisations  :    64
 total energy-change (2. order) : 0.1434775E+00  (-0.1623786E-01)
 number of electron       8.0000000 magnetization 
 augmentation part        0.1821844 magnetization 

 Broyden mixing:
  rms(total) = 0.22924E-01    rms(broyden)= 0.22901E-01
  rms(prec ) = 0.51926E-01
  weight for this iteration     100.00

 eigenvalues of (default mixing * dielectric matrix)
  average eigenvalue GAMMA=   1.5381
  2.2483  0.9785  1.3874

 Free energy of the ion-electron system (eV)
  ---------------------------------------------------
  alpha Z        PSCENC =         0.23350014
  Ewald energy   TEWEN  =       126.52682273
  -Hartree energ DENC   =      -279.05172839
  -exchange      EXHF   =         0.00000000
  -V(xc)+E(xc)   XCENC  =        24.42903158
  PAW double counting   =       452.59647501     -453.37038964
  entropy T*S    EENTRO =        -0.00000000
  eigenvalues    EBANDS =       -92.40907027
  atomic energy  EATOM  =       197.04175453
  Solvation  Ediel_sol  =         0.00000000
  ---------------------------------------------------
  free energy    TOTEN  =       -24.00360429 eV

  energy without entropy =      -24.00360429  energy(sigma->0) =      -24.00360429


--------------------------------------------------------------------------------------------------------




--------------------------------------- Iteration      1(   9)  ---------------------------------------


    POTLOK:  cpu time    0.1382: real time    0.1382
    SETDIJ:  cpu time    0.0014: real time    0.0014
    EDDIAG:  cpu time    0.0364: real time    0.0364
  RMM-DIIS:  cpu time    0.1578: real time    0.1579
    ORTHCH:  cpu time    0.0016: real time    0.0016
       DOS:  cpu time    0.0002: real time    0.0002
    CHARGE:  cpu time    0.0183: real time    0.0183
    MIXING:  cpu time    0.0046: real time    0.0046
    --------------------------------------------
      LOOP:  cpu time    0.3585: real time    0.3586

 eigenvalue-minimisations  :    64
 total energy-change (2. order) : 0.5504105E-02  (-0.1067497E-02)
 number of electron       8.0000000 magnetization 
 augmentation part        0.1816449 magnetization 

 Broyden mixing:
  rms(total) = 0.19144E-01    rms(broyden)= 0.19140E-01
  rms(prec ) = 0.39582E-01
  weight for this iteration     100.00

 eigenvalues of (default mixing * dielectric matrix)
  average eigenvalue GAMMA=   2.0780
  1.0037  1.3553  2.9764  2.9764

 Free energy of the ion-electron system (eV)
  ---------------------------------------------------
  alpha Z        PSCENC =         0.23350014
  Ewald energy   TEWEN  =       126.52682273
  -Hartree energ DENC   =      -280.27472573
  -exchange      EXHF   =         0.00000000
  -V(xc)+E(xc)   XCENC  =        24.49522344
  PAW double counting   =       455.00807835     -455.78478266
  entropy T*S    EENTRO =        -0.00000000
  eigenvalues    EBANDS =       -91.24397099
  atomic energy  EATOM  =       197.04175453
  Solvation  Ediel_sol  =         0.00000000
  ---------------------------------------------------
  free energy    TOTEN  =       -23.99810018 eV

  energy without entropy =      -23.99810018  energy(sigma->0) =      -23.99810018


--------------------------------------------------------------------------------------------------------




--------------------------------------- Iteration      1(  10)  ---------------------------------------


    POTLOK:  cpu time    0.1337: real time    0.1337
    SETDIJ:  cpu time    0.0014: real time    0.0014
    EDDIAG:  cpu time    0.0363: real time    0.0364
  RMM-DIIS:  cpu time    0.1607: real time    0.1607
    ORTHCH:  cpu time    0.0014: real time    0.0014
       DOS:  cpu time    0.0002: real time    0.0002
    CHARGE:  cpu time    0.0184: real time    0.0184
    MIXING:  cpu time    0.0047: real time    0.0047
    --------------------------------------------
      LOOP:  cpu time    0.3568: real time    0.3568

 eigenvalue-minimisations  :    64
 total energy-change (2. order) : 0.6405795E-02  (-0.2450713E-02)
 number of electron       8.0000000 magnetization 
 augmentation part        0.1806201 magnetization 

 Broyden mixing:
  rms(total) = 0.26929E-01    rms(broyden)= 0.26928E-01
  rms(prec ) = 0.34598E-01
  weight for this iteration     100.00

 eigenvalues of (default mixing * dielectric matrix)
  average eigenvalue GAMMA=   1.7897
  3.0728  2.3921  0.9858  1.2489  1.2489

 Free energy of the ion-electron system (eV)
  ---------------------------------------------------
  alpha Z        PSCENC =         0.23350014
  Ewald energy   TEWEN  =       126.52682273
  -Hartree energ DENC   =      -282.43969036
  -exchange      EXHF   =         0.00000000
  -V(xc)+E(xc)   XCENC  =        24.56583803
  PAW double counting   =       440.16588060     -440.94596215
  entropy T*S    EENTRO =        -0.00000000
  eigenvalues    EBANDS =       -89.13983790
  atomic energy  EATOM  =       197.04175453
  Solvation  Ediel_sol  =         0.00000000
  ---------------------------------------------------
  free energy    TOTEN  =       -23.99169439 eV

  energy without entropy =      -23.99169439  energy(sigma->0) =      -23.99169439


--------------------------------------------------------------------------------------------------------




--------------------------------------- Iteration      1(  11)  ---------------------------------------


    POTLOK:  cpu time    0.1333: real time    0.1333
    SETDIJ:  cpu time    0.0014: real time    0.0014
    EDDIAG:  cpu time    0.0363: real time    0.0363
  RMM-DIIS:  cpu time    0.1537: real time    0.1537
    ORTHCH:  cpu time    0.0015: real time    0.0015
       DOS:  cpu time    0.0002: real time    0.0002
    CHARGE:  cpu time    0.0185: real time    0.0185
    MIXING:  cpu time    0.0048: real time    0.0048
    --------------------------------------------
      LOOP:  cpu time    0.3496: real time    0.3497

 eigenvalue-minimisations  :    64
 total energy-change (2. order) :-0.9851637E-03  (-0.9514800E-03)
 number of electron       8.0000000 magnetization 
 augmentation part        0.1810255 magnetization 

 Broyden mixing:
  rms(total) = 0.10174E-01    rms(broyden)= 0.10170E-01
  rms(prec ) = 0.15645E-01
  weight for this iteration     100.00

 eigenvalues of (default mixing * dielectric matrix)
  average eigenvalue GAMMA=   2.2746
  4.8658  3.0647  2.4229  1.2468  1.0237  1.0237

 Free energy of the ion-electron system (eV)
  ---------------------------------------------------
  alpha Z        PSCENC =         0.23350014
  Ewald energy   TEWEN  =       126.52682273
  -Hartree energ DENC   =      -282.32684554
  -exchange      EXHF   =         0.00000000
  -V(xc)+E(xc)   XCENC  =        24.58011162
  PAW double counting   =       448.97530394     -449.74751517
  entropy T*S    EENTRO =        -0.00000000
  eigenvalues    EBANDS =       -89.27581181
  atomic energy  EATOM  =       197.04175453
  Solvation  Ediel_sol  =         0.00000000
  ---------------------------------------------------
  free energy    TOTEN  =       -23.99267955 eV

  energy without entropy =      -23.99267955  energy(sigma->0) =      -23.99267955


--------------------------------------------------------------------------------------------------------




--------------------------------------- Iteration      1(  12)  ---------------------------------------


    POTLOK:  cpu time    0.1267: real time    0.1267
    SETDIJ:  cpu time    0.0014: real time    0.0014
    EDDIAG:  cpu time    0.0363: real time    0.0363
  RMM-DIIS:  cpu time    0.1565: real time    0.1565
    ORTHCH:  cpu time    0.0014: real time    0.0014
       DOS:  cpu time    0.0002: real time    0.0002
    CHARGE:  cpu time    0.0180: real time    0.0180
    MIXING:  cpu time    0.0048: real time    0.0048
    --------------------------------------------
      LOOP:  cpu time    0.3453: real time    0.3453

 eigenvalue-minimisations  :    64
 total energy-change (2. order) :-0.9013995E-02  (-0.2617287E-03)
 number of electron       8.0000000 magnetization 
 augmentation part        0.1811830 magnetization 

 Broyden mixing:
  rms(total) = 0.11406E-01    rms(broyden)= 0.11404E-01
  rms(prec ) = 0.15033E-01
  weight for this iteration     100.00

 eigenvalues of (default mixing * dielectric matrix)
  average eigenvalue GAMMA=   2.0152
  4.8024  2.9334  2.4175  1.1883  1.0227  1.0227  0.7197

 Free energy of the ion-electron system (eV)
  ---------------------------------------------------
  alpha Z        PSCENC =         0.23350014
  Ewald energy   TEWEN  =       126.52682273
  -Hartree energ DENC   =      -282.55879058
  -exchange      EXHF   =         0.00000000
  -V(xc)+E(xc)   XCENC  =        24.57182669
  PAW double counting   =       445.48704997     -446.25898748
  entropy T*S    EENTRO =        -0.00000000
  eigenvalues    EBANDS =       -89.04486956
  atomic energy  EATOM  =       197.04175453
  Solvation  Ediel_sol  =         0.00000000
  ---------------------------------------------------
  free energy    TOTEN  =       -24.00169355 eV

  energy without entropy =      -24.00169355  energy(sigma->0) =      -24.00169355


--------------------------------------------------------------------------------------------------------




--------------------------------------- Iteration      1(  13)  ---------------------------------------


    POTLOK:  cpu time    0.1262: real time    0.1262
    SETDIJ:  cpu time    0.0014: real time    0.0014
    EDDIAG:  cpu time    0.0360: real time    0.0360
  RMM-DIIS:  cpu time    0.1558: real time    0.1558
    ORTHCH:  cpu time    0.0014: real time    0.0014
       DOS:  cpu time    0.0002: real time    0.0002
    CHARGE:  cpu time    0.0182: real time    0.0182
    MIXING:  cpu time    0.0051: real time    0.0051
    --------------------------------------------
      LOOP:  cpu time    0.3441: real time    0.3441

 eigenvalue-minimisations  :    64
 total energy-change (2. order) :-0.6736474E-03  (-0.1129296E-03)
 number of electron       8.0000000 magnetization 
 augmentation part        0.1809245 magnetization 

 Broyden mixing:
  rms(total) = 0.36814E-02    rms(broyden)= 0.36809E-02
  rms(prec ) = 0.54216E-02
  weight for this iteration     100.00

 eigenvalues of (default mixing * dielectric matrix)
  average eigenvalue GAMMA=   2.4411
  6.1495  4.2200  2.4300  2.4300  1.2104  1.2104  0.9916  0.8870

 Free energy of the ion-electron system (eV)
  ---------------------------------------------------
  alpha Z        PSCENC =         0.23350014
  Ewald energy   TEWEN  =       126.52682273
  -Hartree energ DENC   =      -282.73606901
  -exchange      EXHF   =         0.00000000
  -V(xc)+E(xc)   XCENC  =        24.57645275
  PAW double counting   =       445.28294285     -446.05722154
  entropy T*S    EENTRO =        -0.00000000
  eigenvalues    EBANDS =       -88.87054964
  atomic energy  EATOM  =       197.04175453
  Solvation  Ediel_sol  =         0.00000000
  ---------------------------------------------------
  free energy    TOTEN  =       -24.00236720 eV

  energy without entropy =      -24.00236720  energy(sigma->0) =      -24.00236720


--------------------------------------------------------------------------------------------------------




--------------------------------------- Iteration      1(  14)  ---------------------------------------


    POTLOK:  cpu time    0.1248: real time    0.1248
    SETDIJ:  cpu time    0.0014: real time    0.0014
    EDDIAG:  cpu time    0.0360: real time    0.0360
  RMM-DIIS:  cpu time    0.1562: real time    0.1562
    ORTHCH:  cpu time    0.0014: real time    0.0014
       DOS:  cpu time    0.0002: real time    0.0002
    CHARGE:  cpu time    0.0182: real time    0.0182
    MIXING:  cpu time    0.0052: real time    0.0052
    --------------------------------------------
      LOOP:  cpu time    0.3434: real time    0.3434

 eigenvalue-minimisations  :    64
 total energy-change (2. order) :-0.2842724E-02  (-0.1019748E-03)
 number of electron       8.0000000 magnetization 
 augmentation part        0.1808410 magnetization 

 Broyden mixing:
  rms(total) = 0.23268E-02    rms(broyden)= 0.23254E-02
  rms(prec ) = 0.30916E-02
  weight for this iteration     100.00

 eigenvalues of (default mixing * dielectric matrix)
  average eigenvalue GAMMA=   2.3333
  6.4013  3.8529  2.6637  2.3162  1.4111  1.2239  1.2239  0.9809  0.9255

 Free energy of the ion-electron system (eV)
  ---------------------------------------------------
  alpha Z        PSCENC =         0.23350014
  Ewald energy   TEWEN  =       126.52682273
  -Hartree energ DENC   =      -282.70931994
  -exchange      EXHF   =         0.00000000
  -V(xc)+E(xc)   XCENC  =        24.56571474
  PAW double counting   =       444.74432870     -445.51946304
  entropy T*S    EENTRO =        -0.00000000
  eigenvalues    EBANDS =       -88.88854778
  atomic energy  EATOM  =       197.04175453
  Solvation  Ediel_sol  =         0.00000000
  ---------------------------------------------------
  free energy    TOTEN  =       -24.00520992 eV

  energy without entropy =      -24.00520992  energy(sigma->0) =      -24.00520992


--------------------------------------------------------------------------------------------------------




--------------------------------------- Iteration      1(  15)  ---------------------------------------


    POTLOK:  cpu time    0.1250: real time    0.1250
    SETDIJ:  cpu time    0.0014: real time    0.0014
    EDDIAG:  cpu time    0.0362: real time    0.0362
  RMM-DIIS:  cpu time    0.1558: real time    0.1558
    ORTHCH:  cpu time    0.0014: real time    0.0014
       DOS:  cpu time    0.0002: real time    0.0002
    CHARGE:  cpu time    0.0183: real time    0.0183
    MIXING:  cpu time    0.0054: real time    0.0054
    --------------------------------------------
      LOOP:  cpu time    0.3438: real time    0.3438

 eigenvalue-minimisations  :    64
 total energy-change (2. order) :-0.2426786E-03  (-0.4985211E-05)
 number of electron       8.0000000 magnetization 
 augmentation part        0.1807776 magnetization 

 Broyden mixing:
  rms(total) = 0.19920E-02    rms(broyden)= 0.19917E-02
  rms(prec ) = 0.26827E-02
  weight for this iteration     100.00

 eigenvalues of (default mixing * dielectric matrix)
  average eigenvalue GAMMA=   2.5133
  7.5011  4.7409  2.8507  2.5768  2.1483  1.2396  1.2396  0.9736  0.9736  0.8892

 Free energy of the ion-electron system (eV)
  ---------------------------------------------------
  alpha Z        PSCENC =         0.23350014
  Ewald energy   TEWEN  =       126.52682273
  -Hartree energ DENC   =      -282.74518862
  -exchange      EXHF   =         0.00000000
  -V(xc)+E(xc)   XCENC  =        24.56829142
  PAW double counting   =       444.90569746     -445.68058554
  entropy T*S    EENTRO =        -0.00000000
  eigenvalues    EBANDS =       -88.85574473
  atomic energy  EATOM  =       197.04175453
  Solvation  Ediel_sol  =         0.00000000
  ---------------------------------------------------
  free energy    TOTEN  =       -24.00545260 eV

  energy without entropy =      -24.00545260  energy(sigma->0) =      -24.00545260


--------------------------------------------------------------------------------------------------------




--------------------------------------- Iteration      1(  16)  ---------------------------------------


    POTLOK:  cpu time    0.1258: real time    0.1258
    SETDIJ:  cpu time    0.0014: real time    0.0014
    EDDIAG:  cpu time    0.0360: real time    0.0360
  RMM-DIIS:  cpu time    0.1557: real time    0.1557
    ORTHCH:  cpu time    0.0014: real time    0.0014
       DOS:  cpu time    0.0002: real time    0.0002
    CHARGE:  cpu time    0.0180: real time    0.0180
    MIXING:  cpu time    0.0057: real time    0.0057
    --------------------------------------------
      LOOP:  cpu time    0.3442: real time    0.3442

 eigenvalue-minimisations  :    64
 total energy-change (2. order) :-0.2138555E-03  (-0.1155658E-04)
 number of electron       8.0000000 magnetization 
 augmentation part        0.1808357 magnetization 

 Broyden mixing:
  rms(total) = 0.43324E-03    rms(broyden)= 0.43267E-03
  rms(prec ) = 0.61750E-03
  weight for this iteration     100.00

 eigenvalues of (default mixing * dielectric matrix)
  average eigenvalue GAMMA=   2.5008
  7.7380  4.8585  3.1492  2.4418  2.0224  2.0224  1.2214  1.2214  1.0049  0.9145
  0.9145

 Free energy of the ion-electron system (eV)
  ---------------------------------------------------
  alpha Z        PSCENC =         0.23350014
  Ewald energy   TEWEN  =       126.52682273
  -Hartree energ DENC   =      -282.68992287
  -exchange      EXHF   =         0.00000000
  -V(xc)+E(xc)   XCENC  =        24.56608379
  PAW double counting   =       444.88361461     -445.65788550
  entropy T*S    EENTRO =        -0.00000000
  eigenvalues    EBANDS =       -88.90963389
  atomic energy  EATOM  =       197.04175453
  Solvation  Ediel_sol  =         0.00000000
  ---------------------------------------------------
  free energy    TOTEN  =       -24.00566645 eV

  energy without entropy =      -24.00566645  energy(sigma->0) =      -24.00566645


--------------------------------------------------------------------------------------------------------




--------------------------------------- Iteration      1(  17)  ---------------------------------------


    POTLOK:  cpu time    0.1260: real time    0.1260
    SETDIJ:  cpu time    0.0014: real time    0.0014
    EDDIAG:  cpu time    0.0359: real time    0.0359
  RMM-DIIS:  cpu time    0.1566: real time    0.1566
    ORTHCH:  cpu time    0.0015: real time    0.0015
       DOS:  cpu time    0.0002: real time    0.0002
    CHARGE:  cpu time    0.0181: real time    0.0181
    MIXING:  cpu time    0.0057: real time    0.0057
    --------------------------------------------
      LOOP:  cpu time    0.3455: real time    0.3455

 eigenvalue-minimisations  :    64
 total energy-change (2. order) :-0.4274029E-04  (-0.1282625E-05)
 number of electron       8.0000000 magnetization 
 augmentation part        0.1808180 magnetization 

 Broyden mixing:
  rms(total) = 0.38118E-03    rms(broyden)= 0.38118E-03
  rms(prec ) = 0.53151E-03
  weight for this iteration     100.00

 eigenvalues of (default mixing * dielectric matrix)
  average eigenvalue GAMMA=   2.5909
  8.5230  5.2912  3.9634  2.5175  2.5175  1.6744  1.3000  1.3000  1.1855  0.9909
  0.9138  0.9138

 Free energy of the ion-electron system (eV)
  ---------------------------------------------------
  alpha Z        PSCENC =         0.23350014
  Ewald energy   TEWEN  =       126.52682273
  -Hartree energ DENC   =      -282.72336227
  -exchange      EXHF   =         0.00000000
  -V(xc)+E(xc)   XCENC  =        24.56752011
  PAW double counting   =       444.86665059     -445.64117659
  entropy T*S    EENTRO =        -0.00000000
  eigenvalues    EBANDS =       -88.87741843
  atomic energy  EATOM  =       197.04175453
  Solvation  Ediel_sol  =         0.00000000
  ---------------------------------------------------
  free energy    TOTEN  =       -24.00570919 eV

  energy without entropy =      -24.00570919  energy(sigma->0) =      -24.00570919


--------------------------------------------------------------------------------------------------------




--------------------------------------- Iteration      1(  18)  ---------------------------------------


    POTLOK:  cpu time    0.1289: real time    0.1289
    SETDIJ:  cpu time    0.0014: real time    0.0014
    EDDIAG:  cpu time    0.0360: real time    0.0361
  RMM-DIIS:  cpu time    0.1240: real time    0.1240
    ORTHCH:  cpu time    0.0016: real time    0.0016
       DOS:  cpu time    0.0002: real time    0.0002
    CHARGE:  cpu time    0.0179: real time    0.0179
    MIXING:  cpu time    0.0070: real time    0.0070
    --------------------------------------------
      LOOP:  cpu time    0.3171: real time    0.3172

 eigenvalue-minimisations  :    52
 total energy-change (2. order) :-0.1371994E-04  (-0.2382913E-06)
 number of electron       8.0000000 magnetization 
 augmentation part        0.1808245 magnetization 

 Broyden mixing:
  rms(total) = 0.62930E-04    rms(broyden)= 0.62874E-04
  rms(prec ) = 0.94386E-04
  weight for this iteration     100.00

 eigenvalues of (default mixing * dielectric matrix)
  average eigenvalue GAMMA=   2.4923
  8.5197  5.3627  3.8736  2.6532  2.4150  1.6612  1.6612  1.2190  1.2190  1.0126
  0.8863  0.9582  0.9582

 Free energy of the ion-electron system (eV)
  ---------------------------------------------------
  alpha Z        PSCENC =         0.23350014
  Ewald energy   TEWEN  =       126.52682273
  -Hartree energ DENC   =      -282.71048828
  -exchange      EXHF   =         0.00000000
  -V(xc)+E(xc)   XCENC  =        24.56694480
  PAW double counting   =       444.88036267     -445.65476695
  entropy T*S    EENTRO =        -0.00000000
  eigenvalues    EBANDS =       -88.88985256
  atomic energy  EATOM  =       197.04175453
  Solvation  Ediel_sol  =         0.00000000
  ---------------------------------------------------
  free energy    TOTEN  =       -24.00572291 eV

  energy without entropy =      -24.00572291  energy(sigma->0) =      -24.00572291


--------------------------------------------------------------------------------------------------------




--------------------------------------- Iteration      1(  19)  ---------------------------------------


    POTLOK:  cpu time    0.1293: real time    0.1293
    SETDIJ:  cpu time    0.0014: real time    0.0014
    EDDIAG:  cpu time    0.0358: real time    0.0358
  RMM-DIIS:  cpu time    0.1215: real time    0.1215
    ORTHCH:  cpu time    0.0014: real time    0.0014
       DOS:  cpu time    0.0002: real time    0.0002
    CHARGE:  cpu time    0.0179: real time    0.0179
    MIXING:  cpu time    0.0061: real time    0.0061
    --------------------------------------------
      LOOP:  cpu time    0.3136: real time    0.3136

 eigenvalue-minimisations  :    48
 total energy-change (2. order) :-0.4101515E-05  (-0.1371835E-06)
 number of electron       8.0000000 magnetization 
 augmentation part        0.1808306 magnetization 

 Broyden mixing:
  rms(total) = 0.17683E-03    rms(broyden)= 0.17680E-03
  rms(prec ) = 0.23745E-03
  weight for this iteration     100.00

 eigenvalues of (default mixing * dielectric matrix)
  average eigenvalue GAMMA=   2.5656
  8.6296  5.6741  3.8177  3.8177  2.4572  2.4572  1.8378  1.2614  1.2614  1.0860
  0.9706  0.9191  0.9191  0.8100

 Free energy of the ion-electron system (eV)
  ---------------------------------------------------
  alpha Z        PSCENC =         0.23350014
  Ewald energy   TEWEN  =       126.52682273
  -Hartree energ DENC   =      -282.70330124
  -exchange      EXHF   =         0.00000000
  -V(xc)+E(xc)   XCENC  =        24.56648708
  PAW double counting   =       444.85922981     -445.63358682
  entropy T*S    EENTRO =        -0.00000000
  eigenvalues    EBANDS =       -88.89663325
  atomic energy  EATOM  =       197.04175453
  Solvation  Ediel_sol  =         0.00000000
  ---------------------------------------------------
  free energy    TOTEN  =       -24.00572701 eV

  energy without entropy =      -24.00572701  energy(sigma->0) =      -24.00572701


--------------------------------------------------------------------------------------------------------




--------------------------------------- Iteration      1(  20)  ---------------------------------------


    POTLOK:  cpu time    0.1317: real time    0.1317
    SETDIJ:  cpu time    0.0014: real time    0.0014
    EDDIAG:  cpu time    0.0359: real time    0.0359
  RMM-DIIS:  cpu time    0.1249: real time    0.1249
    ORTHCH:  cpu time    0.0014: real time    0.0014
       DOS:  cpu time    0.0002: real time    0.0002
    CHARGE:  cpu time    0.0180: real time    0.0180
    MIXING:  cpu time    0.0064: real time    0.0064
    --------------------------------------------
      LOOP:  cpu time    0.3199: real time    0.3199

 eigenvalue-minimisations  :    48
 total energy-change (2. order) :-0.1122856E-05  (-0.2230788E-07)
 number of electron       8.0000000 magnetization 
 augmentation part        0.1808306 magnetization 

 Broyden mixing:
  rms(total) = 0.81000E-04    rms(broyden)= 0.80996E-04
  rms(prec ) = 0.11000E-03
  weight for this iteration     100.00

 eigenvalues of (default mixing * dielectric matrix)
  average eigenvalue GAMMA=   2.4665
  8.6577  5.6369  3.9865  3.7362  2.4658  2.4658  1.8634  1.2586  1.2586  1.0961
  0.9039  0.9596  0.9672  0.8708  0.8708

 Free energy of the ion-electron system (eV)
  ---------------------------------------------------
  alpha Z        PSCENC =         0.23350014
  Ewald energy   TEWEN  =       126.52682273
  -Hartree energ DENC   =      -282.70682292
  -exchange      EXHF   =         0.00000000
  -V(xc)+E(xc)   XCENC  =        24.56662599
  PAW double counting   =       444.85632125     -445.63072032
  entropy T*S    EENTRO =        -0.00000000
  eigenvalues    EBANDS =       -88.89320954
  atomic energy  EATOM  =       197.04175453
  Solvation  Ediel_sol  =         0.00000000
  ---------------------------------------------------
  free energy    TOTEN  =       -24.00572814 eV

  energy without entropy =      -24.00572814  energy(sigma->0) =      -24.00572814


--------------------------------------------------------------------------------------------------------




--------------------------------------- Iteration      1(  21)  ---------------------------------------


    POTLOK:  cpu time    0.1312: real time    0.1312
    SETDIJ:  cpu time    0.0014: real time    0.0014
    EDDIAG:  cpu time    0.0359: real time    0.0359
  RMM-DIIS:  cpu time    0.1217: real time    0.1218
    ORTHCH:  cpu time    0.0014: real time    0.0014
       DOS:  cpu time    0.0002: real time    0.0002
    --------------------------------------------
      LOOP:  cpu time    0.2918: real time    0.2918

 eigenvalue-minimisations  :    48
 total energy-change (2. order) :-0.3599420E-06  (-0.1875724E-07)
 number of electron       8.0000000 magnetization 
 augmentation part        0.1808306 magnetization 

 Free energy of the ion-electron system (eV)
  ---------------------------------------------------
  alpha Z        PSCENC =         0.23350014
  Ewald energy   TEWEN  =       126.52682273
  -Hartree energ DENC   =      -282.70920678
  -exchange      EXHF   =         0.00000000
  -V(xc)+E(xc)   XCENC  =        24.56674750
  PAW double counting   =       444.85379446     -445.62821555
  entropy T*S    EENTRO =        -0.00000000
  eigenvalues    EBANDS =       -88.89092553
  atomic energy  EATOM  =       197.04175453
  Solvation  Ediel_sol  =         0.00000000
  ---------------------------------------------------
  free energy    TOTEN  =       -24.00572850 eV

  energy without entropy =      -24.00572850  energy(sigma->0) =      -24.00572850


--------------------------------------------------------------------------------------------------------




 average (electrostatic) potential at core
  the test charge radii are     0.5201  0.6991
  (the norm of the test charge is              1.0000)
       1 -41.4140       2 -41.3626       3 -41.4585       4 -41.3636       5 -58.0655
 
 
 
 E-fermi :  -8.1787     XC(G=0):  -0.6825     alpha+bet : -0.2031


 k-point     1 :       0.2500    0.2500    0.2500
  band No.  band energies     occupation 
      1     -16.7654      2.00000
      2      -9.2997      2.00000
      3      -9.2238      2.00000
      4      -9.1568      2.00000
      5      -0.3378      0.00000
      6       0.5327      0.00000
      7       0.6378      0.00000
      8       0.6719      0.00000

 k-point     2 :      -0.2500    0.2500    0.2500
  band No.  band energies     occupation 
      1     -16.7654      2.00000
      2      -9.2996      2.00000
      3      -9.2237      2.00000
      4      -9.1567      2.00000
      5      -0.3418      0.00000
      6       0.5366      0.00000
      7       0.6461      0.00000
      8       0.6845      0.00000

 k-point     3 :       0.2500   -0.2500    0.2500
  band No.  band energies     occupation 
      1     -16.7654      2.00000
      2      -9.2997      2.00000
      3      -9.2236      2.00000
      4      -9.1568      2.00000
      5      -0.3429      0.00000
      6       0.5356      0.00000
      7       0.6481      0.00000
      8       0.6940      0.00000

 k-point     4 :      -0.2500   -0.2500    0.2500
  band No.  band energies     occupation 
      1     -16.7654      2.00000
      2      -9.2996      2.00000
      3      -9.2237      2.00000
      4      -9.1567      2.00000
      5      -0.3418      0.00000
      6       0.5378      0.00000
      7       0.6488      0.00000
      8       0.6858      0.00000


--------------------------------------------------------------------------------------------------------


 soft charge-density along one line, spin component           1
         0         1         2         3         4         5         6         7         8         9
 total charge-density along one line
 
 pseudopotential strength for first ion, spin component:           1
 -2.340  -4.033  -0.001  -0.001   0.001
 -4.033  -6.862  -0.003  -0.004   0.002
 -0.001  -0.003  -0.338   0.002  -0.001
 -0.001  -0.004   0.002  -0.337  -0.001
  0.001   0.002  -0.001  -0.001  -0.339
 total augmentation occupancy for first ion, spin component:           1
  3.498  -0.632   0.219   0.324  -0.143
 -0.632   0.128  -0.041  -0.060   0.026
  0.219  -0.041   0.020   0.017  -0.007
  0.324  -0.060   0.017   0.033  -0.011
 -0.143   0.026  -0.007  -0.011   0.013


------------------------ aborting loop because EDIFF is reached ----------------------------------------


    CHARGE:  cpu time    0.0179: real time    0.0179
    FORLOC:  cpu time    0.0110: real time    0.0110
    FORNL :  cpu time    0.0176: real time    0.0176
    STRESS:  cpu time    0.1413: real time    0.1413
    FORCOR:  cpu time    0.1310: real time    0.1310
    FORHAR:  cpu time    0.0405: real time    0.0405
    MIXING:  cpu time    0.0066: real time    0.0066
    OFIELD:  cpu time    0.0000: real time    0.0000

  FORCE on cell =-STRESS in cart. coord.  units (eV):
  Direction    XX          YY          ZZ          XY          YZ          ZX
  --------------------------------------------------------------------------------------
  Alpha Z     0.23350     0.23350     0.23350
  Ewald      41.76621    43.00512    41.75547    -0.40496    -1.26588    -1.14468
  Hartree    93.23422    95.61402    93.86136    -0.40356    -0.57520    -0.35183
  E(xc)     -27.01383   -27.03046   -27.02010    -0.00298    -0.00729    -0.00472
  Local    -193.86836  -197.63891  -194.61465     0.86882     1.71465     1.28087
  n-local   -15.46891   -15.54398   -15.49030    -0.02540    -0.02159     0.01104
  augment     0.12339     0.12335     0.12408    -0.00085     0.00053     0.00162
  Kinetic    99.59041   100.50288    99.93704     0.17160     0.38438     0.20744
  Fock        0.00000     0.00000     0.00000     0.00000     0.00000     0.00000
  -------------------------------------------------------------------------------------
  Total      -1.40338    -0.73447    -1.21361     0.20266     0.22959    -0.00027
  in kB      -2.16724    -1.13425    -1.87418     0.31297     0.35456    -0.00042
  external pressure =       -1.73 kB  Pullay stress =        0.00 kB

  kinetic pressure (ideal gas correction) =      0.00 kB
  total pressure  =     -1.73 kB
  Total+kin.    -2.167      -1.134      -1.874       0.313       0.355      -0.000

 VOLUME and BASIS-vectors are now :
 -----------------------------------------------------------------------------
  energy-cutoff  :      400.00
  volume of cell :     1037.48
      direct lattice vectors                 reciprocal lattice vectors
    10.240930956  0.000000000  0.000000000     0.097647373  0.001538401  0.000757266
    -0.157090214  9.971030671  0.000000000     0.000000000  0.100290535  0.001591215
    -0.076253121 -0.161200944 10.160113665     0.000000000  0.000000000  0.098424096

  length of vectors
    10.240930956  9.972268046 10.161678502     0.097662426  0.100303157  0.098424096


 FORCES acting on ions
    electron-ion (+dipol)            ewald-force                    non-local-force                 convergence-correction
 -----------------------------------------------------------------------------------------------
   -.176E+02 0.276E+02 0.404E+02   0.192E+02 -.303E+02 -.442E+02   -.184E+01 0.279E+01 0.414E+01   0.211E-04 0.206E-05 -.263E-04
   0.511E+02 -.612E+01 0.323E+01   -.555E+02 0.663E+01 -.353E+01   0.513E+01 -.629E+00 0.325E+00   -.354E-04 0.132E-04 -.169E-04
   -.235E+02 -.467E+02 0.146E+01   0.258E+02 0.514E+02 -.153E+01   -.245E+01 -.482E+01 0.182E+00   0.210E-04 0.124E-04 -.116E-04
   -.120E+02 0.241E+02 -.440E+02   0.130E+02 -.262E+02 0.478E+02   -.122E+01 0.243E+01 -.443E+01   0.261E-04 -.534E-05 0.204E-04
   0.236E+01 0.136E+01 -.130E+01   -.261E+01 -.153E+01 0.146E+01   0.107E+00 -.399E-02 -.418E-01   0.104E-03 0.623E-04 -.973E-04
 -----------------------------------------------------------------------------------------------
   0.275E+00 0.240E+00 -.175E+00   0.000E+00 0.000E+00 0.711E-14   -.276E+00 -.240E+00 0.175E+00   0.137E-03 0.846E-04 -.132E-03
 
 
 POSITION                                       TOTAL-FORCE (eV/Angst)
 -----------------------------------------------------------------------------------
      5.41808      4.00000      3.66340        -0.260491      0.101244      0.329203
      3.92945      4.72123      4.45512         0.736590     -0.126264      0.026893
      5.53656      5.57101      4.49421        -0.147513     -0.118021      0.117928
      5.30214      4.06343      5.48039        -0.185820      0.321764     -0.584765
      5.03959      4.58664      4.52654        -0.143028     -0.179105      0.110751
 -----------------------------------------------------------------------------------
    total drift:                               -0.000263     -0.000382      0.000010


--------------------------------------------------------------------------------------------------------



  FREE ENERGIE OF THE ION-ELECTRON SYSTEM (eV)
  ---------------------------------------------------
  free  energy   TOTEN  =       -24.00572850 eV

  energy  without entropy=      -24.00572850  energy(sigma->0) =      -24.00572850
 


--------------------------------------------------------------------------------------------------------


    POTLOK:  cpu time    0.1341: real time    0.1341


--------------------------------------------------------------------------------------------------------


           RANDOM_SEED =         172313691                0                0
           RANDOM_SEED =         172313691               30                0
   IONSTEP:  cpu time    0.0024: real time    0.0024

  ENERGY OF THE ELECTRON-ION-THERMOSTAT SYSTEM (eV)
  ---------------------------------------------------
% ion-electron   TOTEN  =       -24.005728  see above
  kinetic energy EKIN   =         0.000385
  kin. lattice  EKIN_LAT=         0.000000  (temperature    0.74 K)
  nose potential ES     =         0.000000
  nose kinetic   EPS    =         0.000000
  ---------------------------------------------------
  total energy   ETOTAL =       -24.005344 eV

  maximum distance moved by ions :      0.18E-03

    WAVPRE:  cpu time    0.0387: real time    0.0387
    FEWALD:  cpu time    0.0003: real time    0.0003
    ORTHCH:  cpu time    0.0081: real time    0.0081
     LOOP+:  cpu time    7.1707: real time    7.1716


--------------------------------------- Iteration      2(   1)  ---------------------------------------


    POTLOK:  cpu time    0.1338: real time    0.1338
    SETDIJ:  cpu time    0.0014: real time    0.0014
     EDDAV:  cpu time    0.1785: real time    0.1785
       DOS:  cpu time    0.0002: real time    0.0002
    CHARGE:  cpu time    0.0177: real time    0.0177
    MIXING:  cpu time    0.0059: real time    0.0059
    --------------------------------------------
      LOOP:  cpu time    0.3375: real time    0.3376

 eigenvalue-minimisations  :    80
 total energy-change (2. order) :-0.3009679E-02  (-0.3452893E-03)
 number of electron       8.0000000 magnetization 
 augmentation part        0.1812478 magnetization 

 Broyden mixing:
  rms(total) = 0.31273E-02    rms(broyden)= 0.31256E-02
  rms(prec ) = 0.41319E-02
  weight for this iteration     100.00

 Free energy of the ion-electron system (eV)
  ---------------------------------------------------
  alpha Z        PSCENC =         0.23350014
  Ewald energy   TEWEN  =       126.79987368
  -Hartree energ DENC   =      -282.87112570
  -exchange      EXHF   =         0.00000000
  -V(xc)+E(xc)   XCENC  =        24.57490514
  PAW double counting   =       444.84799924     -445.62242570
  entropy T*S    EENTRO =        -0.00000000
  eigenvalues    EBANDS =       -89.01321915
  atomic energy  EATOM  =       197.04175453
  Solvation  Ediel_sol  =         0.00000000
  ---------------------------------------------------
  free energy    TOTEN  =       -24.00873782 eV

  energy without entropy =      -24.00873782  energy(sigma->0) =      -24.00873782


--------------------------------------------------------------------------------------------------------




--------------------------------------- Iteration      2(   2)  ---------------------------------------


    POTLOK:  cpu time    0.1383: real time    0.1384
    SETDIJ:  cpu time    0.0014: real time    0.0014
    EDDIAG:  cpu time    0.0362: real time    0.0362
  RMM-DIIS:  cpu time    0.1554: real time    0.1554
    ORTHCH:  cpu time    0.0015: real time    0.0015
       DOS:  cpu time    0.0002: real time    0.0002
    CHARGE:  cpu time    0.0180: real time    0.0180
    MIXING:  cpu time    0.0042: real time    0.0042
    --------------------------------------------
      LOOP:  cpu time    0.3552: real time    0.3552

 eigenvalue-minimisations  :    64
 total energy-change (2. order) : 0.2901342E-04  (-0.8341436E-05)
 number of electron       8.0000000 magnetization 
 augmentation part        0.1811979 magnetization 

 Broyden mixing:
  rms(total) = 0.13695E-02    rms(broyden)= 0.13693E-02
  rms(prec ) = 0.16996E-02
  weight for this iteration     100.00

 eigenvalues of (default mixing * dielectric matrix)
  average eigenvalue GAMMA=   1.6422
  1.6422

 Free energy of the ion-electron system (eV)
  ---------------------------------------------------
  alpha Z        PSCENC =         0.23350014
  Ewald energy   TEWEN  =       126.79987368
  -Hartree energ DENC   =      -282.92643298
  -exchange      EXHF   =         0.00000000
  -V(xc)+E(xc)   XCENC  =        24.57790330
  PAW double counting   =       445.52693372     -446.30199114
  entropy T*S    EENTRO =        -0.00000000
  eigenvalues    EBANDS =       -88.96025005
  atomic energy  EATOM  =       197.04175453
  Solvation  Ediel_sol  =         0.00000000
  ---------------------------------------------------
  free energy    TOTEN  =       -24.00870880 eV

  energy without entropy =      -24.00870880  energy(sigma->0) =      -24.00870880


--------------------------------------------------------------------------------------------------------




--------------------------------------- Iteration      2(   3)  ---------------------------------------


    POTLOK:  cpu time    0.1370: real time    0.1370
    SETDIJ:  cpu time    0.0014: real time    0.0014
    EDDIAG:  cpu time    0.0362: real time    0.0362
  RMM-DIIS:  cpu time    0.1541: real time    0.1541
    ORTHCH:  cpu time    0.0013: real time    0.0013
       DOS:  cpu time    0.0002: real time    0.0002
    CHARGE:  cpu time    0.0181: real time    0.0181
    MIXING:  cpu time    0.0043: real time    0.0043
    --------------------------------------------
      LOOP:  cpu time    0.3527: real time    0.3527

 eigenvalue-minimisations  :    64
 total energy-change (2. order) : 0.4085044E-06  (-0.4717073E-05)
 number of electron       8.0000000 magnetization 
 augmentation part        0.1811447 magnetization 

 Broyden mixing:
  rms(total) = 0.60818E-03    rms(broyden)= 0.60775E-03
  rms(prec ) = 0.70512E-03
  weight for this iteration     100.00

 eigenvalues of (default mixing * dielectric matrix)
  average eigenvalue GAMMA=   1.3972
  1.3972  1.3972

 Free energy of the ion-electron system (eV)
  ---------------------------------------------------
  alpha Z        PSCENC =         0.23350014
  Ewald energy   TEWEN  =       126.79987368
  -Hartree energ DENC   =      -282.95832783
  -exchange      EXHF   =         0.00000000
  -V(xc)+E(xc)   XCENC  =        24.57969603
  PAW double counting   =       446.09373723     -446.86919226
  entropy T*S    EENTRO =        -0.00000000
  eigenvalues    EBANDS =       -88.92974992
  atomic energy  EATOM  =       197.04175453
  Solvation  Ediel_sol  =         0.00000000
  ---------------------------------------------------
  free energy    TOTEN  =       -24.00870839 eV

  energy without entropy =      -24.00870839  energy(sigma->0) =      -24.00870839


--------------------------------------------------------------------------------------------------------




--------------------------------------- Iteration      2(   4)  ---------------------------------------


    POTLOK:  cpu time    0.1377: real time    0.1377
    SETDIJ:  cpu time    0.0014: real time    0.0014
    EDDIAG:  cpu time    0.0363: real time    0.0363
  RMM-DIIS:  cpu time    0.1244: real time    0.1244
    ORTHCH:  cpu time    0.0015: real time    0.0015
       DOS:  cpu time    0.0002: real time    0.0002
    --------------------------------------------
      LOOP:  cpu time    0.3015: real time    0.3015

 eigenvalue-minimisations  :    48
 total energy-change (2. order) : 0.2600638E-06  (-0.1364606E-06)
 number of electron       8.0000000 magnetization 
 augmentation part        0.1811447 magnetization 

 Free energy of the ion-electron system (eV)
  ---------------------------------------------------
  alpha Z        PSCENC =         0.23350014
  Ewald energy   TEWEN  =       126.79987368
  -Hartree energ DENC   =      -282.94952564
  -exchange      EXHF   =         0.00000000
  -V(xc)+E(xc)   XCENC  =        24.57935278
  PAW double counting   =       446.19339865     -446.96873655
  entropy T*S    EENTRO =        -0.00000000
  eigenvalues    EBANDS =       -88.93832573
  atomic energy  EATOM  =       197.04175453
  Solvation  Ediel_sol  =         0.00000000
  ---------------------------------------------------
  free energy    TOTEN  =       -24.00870813 eV

  energy without entropy =      -24.00870813  energy(sigma->0) =      -24.00870813


--------------------------------------------------------------------------------------------------------




 average (electrostatic) potential at core
  the test charge radii are     0.5201  0.6991
  (the norm of the test charge is              1.0000)
       1 -41.4198       2 -41.3737       3 -41.4602       4 -41.3740       5 -58.0580
 
 
 
 E-fermi :  -8.1900     XC(G=0):  -0.7017     alpha+bet : -0.2031


 k-point     1 :       0.2500    0.2500    0.2500
  band No.  band energies     occupation 
      1     -16.7744      2.00000
      2      -9.3035      2.00000
      3      -9.2306      2.00000
      4      -9.1609      2.00000
      5      -0.3417      0.00000
      6       0.5162      0.00000
      7       0.6267      0.00000
      8       0.6587      0.00000

 k-point     2 :      -0.2500    0.2500    0.2500
  band No.  band energies     occupation 
      1     -16.7744      2.00000
      2      -9.3033      2.00000
      3      -9.2305      2.00000
      4      -9.1608      2.00000
      5      -0.3459      0.00000
      6       0.5198      0.00000
      7       0.6361      0.00000
      8       0.6713      0.00000

 k-point     3 :       0.2500   -0.2500    0.2500
  band No.  band energies     occupation 
      1     -16.7744      2.00000
      2      -9.3034      2.00000
      3      -9.2304      2.00000
      4      -9.1609      2.00000
      5      -0.3472      0.00000
      6       0.5203      0.00000
      7       0.6375      0.00000
      8       0.6804      0.00000

 k-point     4 :      -0.2500   -0.2500    0.2500
  band No.  band energies     occupation 
      1     -16.7744      2.00000
      2      -9.3034      2.00000
      3      -9.2305      2.00000
      4      -9.1609      2.00000
      5      -0.3459      0.00000
      6       0.5219      0.00000
      7       0.6373      0.00000
      8       0.6729      0.00000


--------------------------------------------------------------------------------------------------------


 soft charge-density along one line, spin component           1
         0         1         2         3         4         5         6         7         8         9
 total charge-density along one line
 
 pseudopotential strength for first ion, spin component:           1
 -2.340  -4.033  -0.001  -0.001   0.001
 -4.033  -6.863  -0.003  -0.004   0.002
 -0.001  -0.003  -0.338   0.002  -0.001
 -0.001  -0.004   0.002  -0.337  -0.001
  0.001   0.002  -0.001  -0.001  -0.339
 total augmentation occupancy for first ion, spin component:           1
  3.501  -0.632   0.220   0.324  -0.143
 -0.632   0.128  -0.041  -0.060   0.026
  0.220  -0.041   0.020   0.017  -0.007
  0.324  -0.060   0.017   0.034  -0.011
 -0.143   0.026  -0.007  -0.011   0.013


------------------------ aborting loop because EDIFF is reached ----------------------------------------


    CHARGE:  cpu time    0.0177: real time    0.0177
    FORLOC:  cpu time    0.0111: real time    0.0111
    FORNL :  cpu time    0.0176: real time    0.0176
    STRESS:  cpu time    0.1410: real time    0.1410
    FORCOR:  cpu time    0.1327: real time    0.1327
    FORHAR:  cpu time    0.0432: real time    0.0432
    MIXING:  cpu time    0.0057: real time    0.0057
    OFIELD:  cpu time    0.0000: real time    0.0000

  FORCE on cell =-STRESS in cart. coord.  units (eV):
  Direction    XX          YY          ZZ          XY          YZ          ZX
  --------------------------------------------------------------------------------------
  Alpha Z     0.23350     0.23350     0.23350
  Ewald      41.85836    43.08926    41.85221    -0.42199    -1.25950    -1.11589
  Hartree    93.30241    95.70844    93.93710    -0.39816    -0.56634    -0.34840
  E(xc)     -27.02756   -27.04372   -27.03369    -0.00286    -0.00710    -0.00465
  Local    -194.00719  -197.81599  -194.76894     0.87044     1.69566     1.25654
  n-local   -15.49911   -15.56997   -15.51951    -0.02383    -0.02041     0.01031
  augment     0.12280     0.12297     0.12352    -0.00076     0.00058     0.00155
  Kinetic    99.68095   100.56969   100.02031     0.16616     0.37514     0.20445
  Fock        0.00000     0.00000     0.00000     0.00000     0.00000     0.00000
  -------------------------------------------------------------------------------------
  Total      -1.33584    -0.70583    -1.15550     0.18900     0.21802     0.00391
  in kB      -2.06294    -1.09001    -1.78444     0.29187     0.33669     0.00605
  external pressure =       -1.65 kB  Pullay stress =        0.00 kB

  kinetic pressure (ideal gas correction) =      0.00 kB
  total pressure  =     -1.64 kB
  Total+kin.    -2.060      -1.089      -1.783       0.291       0.336       0.006

 VOLUME and BASIS-vectors are now :
 -----------------------------------------------------------------------------
  energy-cutoff  :      400.00
[...]
  PAW double counting   =       487.23894252     -488.03803789
  entropy T*S    EENTRO =        -0.00000000
  eigenvalues    EBANDS =       -90.06050986
  atomic energy  EATOM  =       197.04175453
  Solvation  Ediel_sol  =         0.00000000
  ---------------------------------------------------
  free energy    TOTEN  =       -24.01279592 eV

  energy without entropy =      -24.01279592  energy(sigma->0) =      -24.01279592


--------------------------------------------------------------------------------------------------------




--------------------------------------- Iteration     10(   2)  ---------------------------------------


    POTLOK:  cpu time    0.1363: real time    0.1363
    SETDIJ:  cpu time    0.0014: real time    0.0014
    EDDIAG:  cpu time    0.0360: real time    0.0360
  RMM-DIIS:  cpu time    0.1512: real time    0.1512
    ORTHCH:  cpu time    0.0015: real time    0.0015
       DOS:  cpu time    0.0002: real time    0.0002
    CHARGE:  cpu time    0.0179: real time    0.0179
    MIXING:  cpu time    0.0042: real time    0.0042
    --------------------------------------------
      LOOP:  cpu time    0.3487: real time    0.3487

 eigenvalue-minimisations  :    60
 total energy-change (2. order) :-0.1844967E-05  (-0.4514302E-06)
 number of electron       8.0000004 magnetization 
 augmentation part        0.1891965 magnetization 

 Broyden mixing:
  rms(total) = 0.16237E-03    rms(broyden)= 0.16220E-03
  rms(prec ) = 0.19543E-03
  weight for this iteration     100.00

 eigenvalues of (default mixing * dielectric matrix)
  average eigenvalue GAMMA=   0.8189
  0.8189

 Free energy of the ion-electron system (eV)
  ---------------------------------------------------
  alpha Z        PSCENC =         0.23350014
  Ewald energy   TEWEN  =       133.57775982
  -Hartree energ DENC   =      -288.90514194
  -exchange      EXHF   =         0.00000000
  -V(xc)+E(xc)   XCENC  =        24.89448228
  PAW double counting   =       487.26656136     -488.06569617
  entropy T*S    EENTRO =        -0.00000000
  eigenvalues    EBANDS =       -90.05601780
  atomic energy  EATOM  =       197.04175453
  Solvation  Ediel_sol  =         0.00000000
  ---------------------------------------------------
  free energy    TOTEN  =       -24.01279777 eV

  energy without entropy =      -24.01279777  energy(sigma->0) =      -24.01279777


--------------------------------------------------------------------------------------------------------




--------------------------------------- Iteration     10(   3)  ---------------------------------------


    POTLOK:  cpu time    0.1351: real time    0.1351
    SETDIJ:  cpu time    0.0014: real time    0.0014
    EDDIAG:  cpu time    0.0359: real time    0.0359
  RMM-DIIS:  cpu time    0.1246: real time    0.1246
    ORTHCH:  cpu time    0.0016: real time    0.0016
       DOS:  cpu time    0.0002: real time    0.0002
    CHARGE:  cpu time    0.0179: real time    0.0179
    MIXING:  cpu time    0.0043: real time    0.0043
    --------------------------------------------
      LOOP:  cpu time    0.3210: real time    0.3210

 eigenvalue-minimisations  :    48
 total energy-change (2. order) :-0.1294505E-05  (-0.3356384E-07)
 number of electron       8.0000004 magnetization 
 augmentation part        0.1891935 magnetization 

 Broyden mixing:
  rms(total) = 0.93039E-04    rms(broyden)= 0.93013E-04
  rms(prec ) = 0.10408E-03
  weight for this iteration     100.00

 eigenvalues of (default mixing * dielectric matrix)
  average eigenvalue GAMMA=   1.3699
  1.3699  1.3699

 Free energy of the ion-electron system (eV)
  ---------------------------------------------------
  alpha Z        PSCENC =         0.23350014
  Ewald energy   TEWEN  =       133.57775982
  -Hartree energ DENC   =      -288.90746420
  -exchange      EXHF   =         0.00000000
  -V(xc)+E(xc)   XCENC  =        24.89459440
  PAW double counting   =       487.23512177     -488.03427820
  entropy T*S    EENTRO =        -0.00000000
  eigenvalues    EBANDS =       -90.05378733
  atomic energy  EATOM  =       197.04175453
  Solvation  Ediel_sol  =         0.00000000
  ---------------------------------------------------
  free energy    TOTEN  =       -24.01279906 eV

  energy without entropy =      -24.01279906  energy(sigma->0) =      -24.01279906


--------------------------------------------------------------------------------------------------------




--------------------------------------- Iteration     10(   4)  ---------------------------------------


    POTLOK:  cpu time    0.1356: real time    0.1356
    SETDIJ:  cpu time    0.0015: real time    0.0015
    EDDIAG:  cpu time    0.0359: real time    0.0359
  RMM-DIIS:  cpu time    0.1242: real time    0.1242
    ORTHCH:  cpu time    0.0015: real time    0.0015
       DOS:  cpu time    0.0002: real time    0.0002
    CHARGE:  cpu time    0.0179: real time    0.0179
    MIXING:  cpu time    0.0045: real time    0.0045
    --------------------------------------------
      LOOP:  cpu time    0.3212: real time    0.3212

 eigenvalue-minimisations  :    48
 total energy-change (2. order) :-0.1417293E-05  (-0.1090293E-07)
 number of electron       8.0000004 magnetization 
 augmentation part        0.1891922 magnetization 

 Broyden mixing:
  rms(total) = 0.44217E-04    rms(broyden)= 0.44205E-04
  rms(prec ) = 0.54264E-04
  weight for this iteration     100.00

 eigenvalues of (default mixing * dielectric matrix)
  average eigenvalue GAMMA=   1.6608
  0.9834  2.2237  1.7752

 Free energy of the ion-electron system (eV)
  ---------------------------------------------------
  alpha Z        PSCENC =         0.23350014
  Ewald energy   TEWEN  =       133.57775982
  -Hartree energ DENC   =      -288.90819216
  -exchange      EXHF   =         0.00000000
  -V(xc)+E(xc)   XCENC  =        24.89463069
  PAW double counting   =       487.19574087     -487.99489978
  entropy T*S    EENTRO =        -0.00000000
  eigenvalues    EBANDS =       -90.05309459
  atomic energy  EATOM  =       197.04175453
  Solvation  Ediel_sol  =         0.00000000
  ---------------------------------------------------
  free energy    TOTEN  =       -24.01280048 eV

  energy without entropy =      -24.01280048  energy(sigma->0) =      -24.01280048


--------------------------------------------------------------------------------------------------------




--------------------------------------- Iteration     10(   5)  ---------------------------------------


    POTLOK:  cpu time    0.1367: real time    0.1367
    SETDIJ:  cpu time    0.0014: real time    0.0014
    EDDIAG:  cpu time    0.0359: real time    0.0359
  RMM-DIIS:  cpu time    0.1175: real time    0.1176
    ORTHCH:  cpu time    0.0017: real time    0.0017
       DOS:  cpu time    0.0002: real time    0.0002
    CHARGE:  cpu time    0.0180: real time    0.0180
    MIXING:  cpu time    0.0045: real time    0.0045
    --------------------------------------------
      LOOP:  cpu time    0.3159: real time    0.3160

 eigenvalue-minimisations  :    36
 total energy-change (2. order) :-0.1742369E-05  (-0.4236291E-09)
 number of electron       8.0000004 magnetization 
 augmentation part        0.1891921 magnetization 

 Broyden mixing:
  rms(total) = 0.97790E-05    rms(broyden)= 0.97761E-05
  rms(prec ) = 0.22728E-04
  weight for this iteration     100.00

 eigenvalues of (default mixing * dielectric matrix)
  average eigenvalue GAMMA=   1.5581
  2.7180  0.9780  1.2681  1.2681

 Free energy of the ion-electron system (eV)
  ---------------------------------------------------
  alpha Z        PSCENC =         0.23350014
  Ewald energy   TEWEN  =       133.57775982
  -Hartree energ DENC   =      -288.90851758
  -exchange      EXHF   =         0.00000000
  -V(xc)+E(xc)   XCENC  =        24.89464814
  PAW double counting   =       487.15375480     -487.95290791
  entropy T*S    EENTRO =        -0.00000000
  eigenvalues    EBANDS =       -90.05279417
  atomic energy  EATOM  =       197.04175453
  Solvation  Ediel_sol  =         0.00000000
  ---------------------------------------------------
  free energy    TOTEN  =       -24.01280222 eV

  energy without entropy =      -24.01280222  energy(sigma->0) =      -24.01280222


--------------------------------------------------------------------------------------------------------




--------------------------------------- Iteration     10(   6)  ---------------------------------------


    POTLOK:  cpu time    0.1365: real time    0.1365
    SETDIJ:  cpu time    0.0014: real time    0.0014
    EDDIAG:  cpu time    0.0360: real time    0.0360
  RMM-DIIS:  cpu time    0.1208: real time    0.1208
    ORTHCH:  cpu time    0.0014: real time    0.0014
       DOS:  cpu time    0.0002: real time    0.0002
    --------------------------------------------
      LOOP:  cpu time    0.2962: real time    0.2962

 eigenvalue-minimisations  :    44
 total energy-change (2. order) :-0.6647298E-06  (-0.6321515E-08)
 number of electron       8.0000004 magnetization 
 augmentation part        0.1891921 magnetization 

 Free energy of the ion-electron system (eV)
  ---------------------------------------------------
  alpha Z        PSCENC =         0.23350014
  Ewald energy   TEWEN  =       133.57775982
  -Hartree energ DENC   =      -288.90898596
  -exchange      EXHF   =         0.00000000
  -V(xc)+E(xc)   XCENC  =        24.89466703
  PAW double counting   =       487.14936820     -487.94852392
  entropy T*S    EENTRO =        -0.00000000
  eigenvalues    EBANDS =       -90.05234273
  atomic energy  EATOM  =       197.04175453
  Solvation  Ediel_sol  =         0.00000000
  ---------------------------------------------------
  free energy    TOTEN  =       -24.01280289 eV

  energy without entropy =      -24.01280289  energy(sigma->0) =      -24.01280289


--------------------------------------------------------------------------------------------------------




 average (electrostatic) potential at core
  the test charge radii are     0.5201  0.6991
  (the norm of the test charge is              1.0000)
       1 -41.5570       2 -41.6549       3 -41.4997       4 -41.6381       5 -57.8814
 
 
 
 E-fermi :  -8.2923     XC(G=0):  -0.6849     alpha+bet : -0.2031


 k-point     1 :       0.2500    0.2500    0.2500
  band No.  band energies     occupation 
      1     -16.9926      2.00000
      2      -9.3997      2.00000
      3      -9.3608      2.00000
      4      -9.2732      2.00000
      5      -0.2970      0.00000
      6       0.5298      0.00000
      7       0.6512      0.00000
      8       0.6763      0.00000

 k-point     2 :      -0.2500    0.2500    0.2500
  band No.  band energies     occupation 
      1     -16.9926      2.00000
      2      -9.3996      2.00000
      3      -9.3607      2.00000
      4      -9.2731      2.00000
      5      -0.3017      0.00000
      6       0.5379      0.00000
      7       0.6577      0.00000
      8       0.6893      0.00000

 k-point     3 :       0.2500   -0.2500    0.2500
  band No.  band energies     occupation 
      1     -16.9926      2.00000
      2      -9.3996      2.00000
      3      -9.3608      2.00000
      4      -9.2731      2.00000
      5      -0.3036      0.00000
      6       0.5427      0.00000
      7       0.6584      0.00000
      8       0.6972      0.00000

 k-point     4 :      -0.2500   -0.2500    0.2500
  band No.  band energies     occupation 
      1     -16.9926      2.00000
      2      -9.3997      2.00000
      3      -9.3608      2.00000
      4      -9.2732      2.00000
      5      -0.3017      0.00000
      6       0.5403      0.00000
      7       0.6593      0.00000
      8       0.6886      0.00000


--------------------------------------------------------------------------------------------------------


 soft charge-density along one line, spin component           1
         0         1         2         3         4         5         6         7         8         9
 total charge-density along one line
 
 pseudopotential strength for first ion, spin component:           1
 -2.341  -4.035  -0.001  -0.001   0.001
 -4.035  -6.866  -0.003  -0.004   0.002
 -0.001  -0.003  -0.337   0.002  -0.001
 -0.001  -0.004   0.002  -0.335  -0.001
  0.001   0.002  -0.001  -0.001  -0.338
 total augmentation occupancy for first ion, spin component:           1
  3.584  -0.643   0.237   0.343  -0.146
 -0.643   0.130  -0.044  -0.063   0.027
  0.237  -0.044   0.023   0.019  -0.008
  0.343  -0.063   0.019   0.037  -0.012
 -0.146   0.027  -0.008  -0.012   0.014


------------------------ aborting loop because EDIFF is reached ----------------------------------------


    CHARGE:  cpu time    0.0178: real time    0.0178
    FORLOC:  cpu time    0.0111: real time    0.0111
    FORNL :  cpu time    0.0176: real time    0.0176
    STRESS:  cpu time    0.1409: real time    0.1409
    FORCOR:  cpu time    0.1328: real time    0.1328
    FORHAR:  cpu time    0.0428: real time    0.0428
    MIXING:  cpu time    0.0052: real time    0.0052
    OFIELD:  cpu time    0.0000: real time    0.0000

  FORCE on cell =-STRESS in cart. coord.  units (eV):
  Direction    XX          YY          ZZ          XY          YZ          ZX
  --------------------------------------------------------------------------------------
  Alpha Z     0.23350     0.23350     0.23350
  Ewald      43.81221    45.55243    44.21309    -0.73138    -0.77334    -0.10897
  Hartree    94.93568    98.14652    95.82695    -0.25011    -0.26270    -0.18196
  E(xc)     -27.37489   -27.37688   -27.37632     0.00007    -0.00109    -0.00132
  Local    -197.06682  -202.58461  -198.53124     0.79804     0.86095     0.34547
  n-local   -16.25847   -16.22038   -16.25139     0.01565     0.01058    -0.00826
  augment     0.10610     0.11206     0.10788     0.00188     0.00167    -0.00074
  Kinetic   102.06784   102.18731   102.15017     0.00249     0.05913     0.06058
  Fock        0.00000     0.00000     0.00000     0.00000     0.00000     0.00000
  -------------------------------------------------------------------------------------
  Total       0.45516     0.04995     0.37264    -0.16337    -0.10479     0.10479
  in kB       0.70290     0.07714     0.57546    -0.25229    -0.16183     0.16182
  external pressure =        0.45 kB  Pullay stress =        0.00 kB

  kinetic pressure (ideal gas correction) =      0.01 kB
  total pressure  =      0.46 kB
  Total+kin.     0.720       0.080       0.586      -0.255      -0.166       0.158

 VOLUME and BASIS-vectors are now :
 -----------------------------------------------------------------------------
  energy-cutoff  :      400.00
  volume of cell :     1037.48
      direct lattice vectors                 reciprocal lattice vectors
    10.240930956  0.000000000  0.000000000     0.097647373  0.001538401  0.000757266
    -0.157090214  9.971030671  0.000000000     0.000000000  0.100290535  0.001591215
    -0.076253121 -0.161200944 10.160113665     0.000000000  0.000000000  0.098424096

  length of vectors
    10.240930956  9.972268046 10.161678502     0.097662426  0.100303157  0.098424096


 FORCES acting on ions
    electron-ion (+dipol)            ewald-force                    non-local-force                 convergence-correction
 -----------------------------------------------------------------------------------------------
   -.177E+02 0.288E+02 0.416E+02   0.196E+02 -.321E+02 -.462E+02   -.187E+01 0.302E+01 0.438E+01   -.153E-04 0.121E-04 0.358E-04
   0.536E+02 -.632E+01 0.353E+01   -.600E+02 0.708E+01 -.396E+01   0.576E+01 -.687E+00 0.382E+00   0.159E-04 -.650E-05 0.114E-04
   -.237E+02 -.477E+02 0.103E+01   0.262E+02 0.528E+02 -.112E+01   -.247E+01 -.496E+01 0.116E+00   -.237E-04 -.388E-04 0.839E-05
   -.125E+02 0.252E+02 -.460E+02   0.140E+02 -.282E+02 0.515E+02   -.135E+01 0.270E+01 -.493E+01   -.121E-04 0.365E-05 -.160E-04
   -.658E-01 -.269E+00 0.120E+00   0.223E+00 0.403E+00 -.224E+00   0.276E+00 0.180E+00 -.160E+00   0.810E-05 -.406E-04 0.418E-04
 -----------------------------------------------------------------------------------------------
   -.346E+00 -.262E+00 0.214E+00   0.000E+00 -.711E-14 0.000E+00   0.346E+00 0.262E+00 -.214E+00   -.270E-04 -.703E-04 0.814E-04
 
 
 POSITION                                       TOTAL-FORCE (eV/Angst)
 -----------------------------------------------------------------------------------
      5.39815      4.00243      3.68382         0.089021     -0.225554     -0.283755
      3.97370      4.71243      4.45611        -0.714732      0.074453     -0.049392
      5.52515      5.56488      4.50510         0.049180      0.149630      0.023914
      5.29016      4.08268      5.44554         0.143413     -0.312641      0.573431
      5.03951      4.58608      4.52675         0.433208      0.313926     -0.264053
 -----------------------------------------------------------------------------------
    total drift:                                0.000090     -0.000186      0.000146


--------------------------------------------------------------------------------------------------------



  FREE ENERGIE OF THE ION-ELECTRON SYSTEM (eV)
  ---------------------------------------------------
  free  energy   TOTEN  =       -24.01280289 eV

  energy  without entropy=      -24.01280289  energy(sigma->0) =      -24.01280289
 
 d Force =-0.5215184E-02[-0.586E-02,-0.457E-02]  d Energy =-0.5212738E-02-0.245E-05
 d Force =-0.6396288E+00[-0.641E+00,-0.638E+00]  d Ewald  =-0.6396270E+00-0.184E-05


--------------------------------------------------------------------------------------------------------


    POTLOK:  cpu time    0.1393: real time    0.1393


--------------------------------------------------------------------------------------------------------


           RANDOM_SEED =         172313691               30                0
   IONSTEP:  cpu time    0.0001: real time    0.0001

  ENERGY OF THE ELECTRON-ION-THERMOSTAT SYSTEM (eV)
  ---------------------------------------------------
% ion-electron   TOTEN  =       -24.012803  see above
  kinetic energy EKIN   =         0.007354
  kin. lattice  EKIN_LAT=         0.000000  (temperature   14.22 K)
  nose potential ES     =         0.000000
  nose kinetic   EPS    =         0.000000
  ---------------------------------------------------
  total energy   ETOTAL =       -24.005449 eV

  maximum distance moved by ions :      0.31E-03


 mean value of Nose-termostat <S>:     1.000 mean value of <T> :    24.230
 mean temperature <T/S>/<1/S>  :    24.230

    WAVPRE:  cpu time    0.0471: real time    0.0471
    FEWALD:  cpu time    0.0003: real time    0.0003
    ORTHCH:  cpu time    0.0082: real time    0.0082
 Prediction of Wavefunctions ALPHA= 2.139 BETA=-1.166
    POTLOK:  cpu time    0.1347: real time    0.1348
    EDDIAG:  cpu time    0.0363: real time    0.0363
     LOOP+:  cpu time    2.7037: real time    2.7039
    4ORBIT:  cpu time    0.0000: real time    0.0000

 total amount of memory used by VASP MPI-rank0    56709. kBytes
=======================================================================

   base      :      30000. kBytes
   nonl-proj :       2787. kBytes
   fftplans  :       8577. kBytes
   grid      :      13527. kBytes
   one-center:          6. kBytes
   wavefun   :       1812. kBytes
 
  
  
 General timing and accounting informations for this job:
 ========================================================
  
                  Total CPU time used (sec):       28.325
                            User time (sec):       26.921
                          System time (sec):        1.404
                         Elapsed time (sec):       28.579
  
                   Maximum memory used (kb):      179164.
                   Average memory used (kb):           0.
  
                          Minor page faults:       277982
                          Major page faults:            0
                 Voluntary context switches:           71
