 vasp.5.4.4.18Apr17-6-g9f103f2a35 (build Jul 09 2021 13:05:15) complex          
  
 executed on             LinuxIFC date 2021.11.04  19:02:38
 running on   16 total cores
 distrk:  each k-point on   16 cores,    1 groups
 distr:  one band on NCORES_PER_BAND=   4 cores,    4 groups


--------------------------------------------------------------------------------------------------------


 INCAR:
 POTCAR:    PAW_PBE H 15Jun2001                   
 POTCAR:    PAW_PBE C 08Apr2002                   
 POTCAR:    PAW_PBE H 15Jun2001                   
   VRHFIN =H: ultrasoft test                                                    
   LEXCH  = PE                                                                  
   EATOM  =    12.4884 eV,    0.9179 Ry                                         
                                                                                
   TITEL  = PAW_PBE H 15Jun2001                                                 
   LULTRA =        F    use ultrasoft PP ?                                      
   IUNSCR =        0    unscreen: 0-lin 1-nonlin 2-no                           
   RPACOR =    0.000    partial core radius                                     
   POMASS =    1.000; ZVAL   =    1.000    mass and valenz                      
   RCORE  =    1.100    outmost cutoff radius                                   
   RWIGS  =    0.700; RWIGS  =    0.370    wigner-seitz radius (au A)           
   ENMAX  =  250.000; ENMIN  =  200.000 eV                                      
   RCLOC  =    0.701    cutoff for local pot                                    
   LCOR   =        T    correct aug charges                                     
   LPAW   =        T    paw PP                                                  
   EAUG   =  400.000                                                            
   RMAX   =    1.123    core radius for proj-oper                               
   RAUG   =    1.200    factor for augmentation sphere                          
   RDEP   =    1.112    radius for radial grids                                 
   RDEPT  =    0.926    core radius for aug-charge                              
                                                                                
   Atomic configuration                                                         
    2 entries                                                                   
     n  l   j            E        occ.                                          
     1  0  0.50        -6.4927   1.0000                                         
     2  1  0.50        -3.4015   0.0000                                         
   Description                                                                  
     l       E           TYP  RCUT    TYP  RCUT                                 
     0     -6.4927494     23  1.100                                             
     0      6.8029130     23  1.100                                             
     1     -4.0817478     23  1.100                                             
  local pseudopotential read in
  atomic valenz-charges read in
  non local Contribution for L=           0  read in
    real space projection operators read in
  non local Contribution for L=           0  read in
    real space projection operators read in
  non local Contribution for L=           1  read in
    real space projection operators read in
    PAW grid and wavefunctions read in
 
   number of l-projection  operators is LMAX  =           3
   number of lm-projection operators is LMMAX =           5
 
 POTCAR:    PAW_PBE C 08Apr2002                   
   VRHFIN =C: s2p2                                                              
   LEXCH  = PE                                                                  
   EATOM  =   147.1560 eV,   10.8157 Ry                                         
                                                                                
   TITEL  = PAW_PBE C 08Apr2002                                                 
   LULTRA =        F    use ultrasoft PP ?                                      
   IUNSCR =        1    unscreen: 0-lin 1-nonlin 2-no                           
   RPACOR =    1.200    partial core radius                                     
   POMASS =   12.011; ZVAL   =    4.000    mass and valenz                      
   RCORE  =    1.500    outmost cutoff radius                                   
   RWIGS  =    1.630; RWIGS  =    0.863    wigner-seitz radius (au A)           
   ENMAX  =  400.000; ENMIN  =  300.000 eV                                      
   ICORE  =        2    local potential                                         
   LCOR   =        T    correct aug charges                                     
   LPAW   =        T    paw PP                                                  
   EAUG   =  644.873                                                            
   DEXC   =    0.000                                                            
   RMAX   =    1.529    core radius for proj-oper                               
   RAUG   =    1.300    factor for augmentation sphere                          
   RDEP   =    1.501    radius for radial grids                                 
   RDEPT  =    1.300    core radius for aug-charge                              
                                                                                
   Atomic configuration                                                         
    4 entries                                                                   
     n  l   j            E        occ.                                          
     1  0  0.50      -273.3789   2.0000                                         
     2  0  0.50       -13.7508   2.0000                                         
     2  1  0.50        -5.2854   2.0000                                         
     3  2  1.50        -5.4423   0.0000                                         
   Description                                                                  
     l       E           TYP  RCUT    TYP  RCUT                                 
     0    -13.7508458     23  1.200                                             
     0     -8.2022199     23  1.200                                             
     1     -5.2854383     23  1.500                                             
     1     34.0145650     23  1.500                                             
     2     -5.4423304      7  1.500                                             
  local pseudopotential read in
  partial core-charges read in
  partial kinetic energy density read in
  atomic valenz-charges read in
  non local Contribution for L=           0  read in
    real space projection operators read in
  non local Contribution for L=           0  read in
    real space projection operators read in
  non local Contribution for L=           1  read in
    real space projection operators read in
  non local Contribution for L=           1  read in
    real space projection operators read in
    PAW grid and wavefunctions read in
 
   number of l-projection  operators is LMAX  =           4
   number of lm-projection operators is LMMAX =           8
 
  PAW_PBE H 15Jun2001                   :
 energy of atom  1       EATOM=  -12.4884
 kinetic energy error for atom=    0.0098 (will be added to EATOM!!)
  PAW_PBE C 08Apr2002                   :
 energy of atom  2       EATOM= -147.1560
 kinetic energy error for atom=    0.0288 (will be added to EATOM!!)
 
 
 POSCAR:  H  C                                   
  positions in cartesian coordinates
  No initial velocities read in
 exchange correlation table for  LEXCH =        8
   RHO(1)=    0.500       N(1)  =     2000
   RHO(2)=  100.500       N(2)  =     4000
 


--------------------------------------------------------------------------------------------------------


 ion  position               nearest neighbor table
   1  0.538  0.407  0.361-   5 1.08
   2  0.394  0.481  0.438-   5 1.09
   3  0.552  0.565  0.443-   5 1.10
   4  0.528  0.416  0.539-   5 1.11
   5  0.504  0.467  0.446-   1 1.08   2 1.09   3 1.10   4 1.11
 

IMPORTANT INFORMATION: All symmetrisations will be switched off!
NOSYMM: (Re-)initialisation of all symmetry stuff for point group C_1.

 
 

Automatic generation of k-mesh.
 generate k-points for:    2    2    2
Space group operators:
 irot       det(A)        alpha          n_x          n_y          n_z        tau_x        tau_y        tau_z
    1     1.000000     0.000000     1.000000     0.000000     0.000000     0.000000     0.000000     0.000000
 
 Subroutine IBZKPT returns following result:
 ===========================================
 
 Found      4 irreducible k-points:
 
 Following reciprocal coordinates:
            Coordinates               Weight
  0.250000  0.250000  0.250000      2.000000
 -0.250000  0.250000  0.250000      2.000000
  0.250000 -0.250000  0.250000      2.000000
 -0.250000 -0.250000  0.250000      2.000000
 
 Following cartesian coordinates:
            Coordinates               Weight
  0.025490  0.025314  0.025363      2.000000
 -0.025490  0.023809  0.026405      2.000000
  0.025490 -0.023809  0.024248      2.000000
 -0.025490 -0.025314  0.025290      2.000000
 


--------------------------------------------------------------------------------------------------------




 Dimension of arrays:
   k-points           NKPTS =      4   k-points in BZ     NKDIM =      4   number of bands    NBANDS=      8
   number of dos      NEDOS =    301   number of ions     NIONS =      5
   non local maximal  LDIM  =      4   non local SUM 2l+1 LMDIM =      8
   total plane-waves  NPLWV = 286720
   max r-space proj   IRMAX =      1   max aug-charges    IRDMAX=   3633
   dimension x,y,z NGX =    64 NGY =   70 NGZ =   64
   dimension x,y,z NGXF=   128 NGYF=  140 NGZF=  128
   support grid    NGXF=   128 NGYF=  140 NGZF=  128
   ions per type =               4   1
   NGX,Y,Z   is equivalent  to a cutoff of  10.85, 11.43, 10.77 a.u.
   NGXF,Y,Z  is equivalent  to a cutoff of  21.70, 22.86, 21.55 a.u.

 SYSTEM =  unknown system                          
 POSCAR =   H  C                                   

 Startparameter for this run:
   NWRITE =      2    write-flag & timer
   PREC   = a         normal or accurate (medium, high low for compatibility)
   ISTART =      0    job   : 0-new  1-cont  2-samecut
   ICHARG =      2    charge: 1-file 2-atom 10-const
   ISPIN  =      1    spin polarized calculation?
   LNONCOLLINEAR =      F non collinear calculations
   LSORBIT =      F    spin-orbit coupling
   INIWAV =      1    electr: 0-lowe 1-rand  2-diag
   LASPH  =      F    aspherical Exc in radial PAW
   METAGGA=      F    non-selfconsistent MetaGGA calc.

 Electronic Relaxation 1
   ENCUT  =  400.0 eV  29.40 Ry    5.42 a.u.  15.99 16.61 16.10*2*pi/ulx,y,z
   ENINI  =  400.0     initial cutoff
   ENAUG  =  644.9 eV  augmentation charge cutoff
   NELM   =    120;   NELMIN=  4; NELMDL= -5     # of ELM steps 
   EDIFF  = 0.1E-05   stopping-criterion for ELM
   LREAL  =      F    real-space projection
   NLSPLINE    = F    spline interpolate recip. space projectors
   LCOMPAT=      F    compatible to vasp.4.4
   GGA_COMPAT  = T    GGA compatible to vasp.4.4-vasp.4.6
   LMAXPAW     = -100 max onsite density
   LMAXMIX     =    2 max onsite mixed and CHGCAR
   VOSKOWN=      0    Vosko Wilk Nusair interpolation
   ROPT   =    0.00000   0.00000
 Ionic relaxation
   EDIFFG = 0.1E-04   stopping-criterion for IOM
   NSW    =     10    number of steps for IOM
   NBLOCK =      1;   KBLOCK =     10    inner block; outer block 
   IBRION =      0    ionic relax: 0-MD 1-quasi-New 2-CG
   NFREE  =      0    steps in history (QN), initial steepest desc. (CG)
   ISIF   =      2    stress and relaxation
   IWAVPR =     12    prediction:  0-non 1-charg 2-wave 3-comb
   ISYM   =      0    0-nonsym 1-usesym 2-fastsym
   LCORR  =      T    Harris-Foulkes like correction to forces

   POTIM  = 0.5000    time-step for ionic-motion
   TEIN   =    0.0    initial temperature
   TEBEG  =    0.0;   TEEND  =   0.0 temperature during run
   SMASS  =  -3.00    Nose mass-parameter (am)
   estimated Nose-frequenzy (Omega)   =  0.10E-29 period in steps =****** mass=  -0.220E-26a.u.
   SCALEE = 1.0000    scale energy and forces
   NPACO  =    256;   APACO  = 16.0  distance and # of slots for P.C.
   PSTRESS=    0.0 pullay stress

  Mass of Ions in am
   POMASS =   1.00 12.01
  Ionic Valenz
   ZVAL   =   1.00  4.00
  Atomic Wigner-Seitz radii
   RWIGS  =  -1.00 -1.00
  virtual crystal weights 
   VCA    =   1.00  1.00
   NELECT =       8.0000    total number of electrons
   NUPDOWN=      -1.0000    fix difference up-down

 DOS related values:
   EMIN   =  10.00;   EMAX   =-10.00  energy-range for DOS
   EFERMI =   0.00
   ISMEAR =     0;   SIGMA  =   0.20  broadening in eV -4-tet -1-fermi 0-gaus

 Electronic relaxation 2 (details)
   IALGO  =     68    algorithm
   LDIAG  =      T    sub-space diagonalisation (order eigenvalues)
   LSUBROT=      F    optimize rotation matrix (better conditioning)
   TURBO    =      0    0=normal 1=particle mesh
   IRESTART =      0    0=no restart 2=restart with 2 vectors
   NREBOOT  =      0    no. of reboots
   NMIN     =      0    reboot dimension
   EREF     =   0.00    reference energy to select bands
   IMIX   =      4    mixing-type and parameters
     AMIX     =   0.40;   BMIX     =  1.00
     AMIX_MAG =   1.60;   BMIX_MAG =  1.00
     AMIN     =   0.10
     WC   =   100.;   INIMIX=   1;  MIXPRE=   1;  MAXMIX= -45

 Intra band minimization:
   WEIMIN = 0.0010     energy-eigenvalue tresh-hold
   EBREAK =  0.31E-07  absolut break condition
   DEPER  =   0.30     relativ break condition  

   TIME   =   0.40     timestep for ELM

  volume/ion in A,a.u.               =     197.09      1330.00
  Fermi-wavevector in a.u.,A,eV,Ry     =   0.329026  0.621768  1.472938  0.108258
  Thomas-Fermi vector in A             =   1.223119
 
 Write flags
   LWAVE        =      F    write WAVECAR
   LDOWNSAMPLE  =      F    k-point downsampling of WAVECAR
   LCHARG       =      F    write CHGCAR
   LVTOT        =      F    write LOCPOT, total local potential
   LVHAR        =      F    write LOCPOT, Hartree potential only
   LELF         =      F    write electronic localiz. function (ELF)
   LORBIT       =      0    0 simple, 1 ext, 2 COOP (PROOUT), +10 PAW based schemes


 Dipole corrections
   LMONO  =      F    monopole corrections only (constant potential shift)
   LDIPOL =      F    correct potential (dipole corrections)
   IDIPOL =      0    1-x, 2-y, 3-z, 4-all directions 
   EPSILON=  1.0000000 bulk dielectric constant

 Exchange correlation treatment:
   GGA     =    --    GGA type
   LEXCH   =     8    internal setting for exchange type
   VOSKOWN=      0    Vosko Wilk Nusair interpolation
   LHFCALC =     F    Hartree Fock is set to
   LHFONE  =     F    Hartree Fock one center treatment
   AEXX    =    0.0000 exact exchange contribution

 Linear response parameters
   LEPSILON=     F    determine dielectric tensor
   LRPA    =     F    only Hartree local field effects (RPA)
   LNABLA  =     F    use nabla operator in PAW spheres
   LVEL    =     F    velocity operator in full k-point grid
   LINTERFAST=   F  fast interpolation
   KINTER  =     0    interpolate to denser k-point grid
   CSHIFT  =0.1000    complex shift for real part using Kramers Kronig
   OMEGAMAX=  -1.0    maximum frequency
   DEG_THRESHOLD= 0.2000000E-02 threshold for treating states as degnerate
   RTIME   =   -0.100 relaxation time in fs
  (WPLASMAI=    0.000 imaginary part of plasma frequency in eV, 0.658/RTIME)
   DFIELD  = 0.0000000 0.0000000 0.0000000 field for delta impulse in time
 
 Orbital magnetization related:
   ORBITALMAG=     F  switch on orbital magnetization
   LCHIMAG   =     F  perturbation theory with respect to B field
   DQ        =  0.001000  dq finite difference perturbation B field
   LLRAUG    =     F  two centre corrections for induced B field



--------------------------------------------------------------------------------------------------------


 molecular dynamics for ions
   using a microcanonical ensemble
 charge density and potential will be updated during run
 non-spin polarized calculation
 RMM-DIIS sequential band-by-band and
  variant of blocked Davidson during initial phase
 perform sub-space diagonalisation
    before iterative eigenvector-optimisation
 modified Broyden-mixing scheme, WC =      100.0
 initial mixing is a Kerker type mixing with AMIX =  0.4000 and BMIX =      1.0000
 Hartree-type preconditioning will be used
 using additional bands            4
 reciprocal scheme for non local part
 use partial core corrections
 calculate Harris-corrections to forces 
   (improved forces if not selfconsistent)
 use gradient corrections 
 use of overlap-Matrix (Vanderbilt PP)
 Gauss-broadening in eV      SIGMA  =   0.20


--------------------------------------------------------------------------------------------------------


  energy-cutoff  :      400.00
  volume of cell :      985.43
      direct lattice vectors                 reciprocal lattice vectors
     9.807864540  0.000000000  0.000000000     0.101958994  0.003008701 -0.002084306
    -0.300358811 10.178572592  0.000000000     0.000000000  0.098245603  0.002230734
     0.208403887 -0.224129206  9.871061247     0.000000000  0.000000000  0.101306230

  length of vectors
     9.807864540 10.183003262  9.875804586     0.102024669  0.098270925  0.101306230


 
 k-points in units of 2pi/SCALE and weight: read from INCAR                         
   0.02548975  0.02531358  0.02536316       0.250
  -0.02548975  0.02380923  0.02640532       0.250
   0.02548975 -0.02380923  0.02424780       0.250
  -0.02548975 -0.02531358  0.02528995       0.250
 
 k-points in reciprocal lattice and weights: read from INCAR                         
   0.25000000  0.25000000  0.25000000       0.250
  -0.25000000  0.25000000  0.25000000       0.250
   0.25000000 -0.25000000  0.25000000       0.250
  -0.25000000 -0.25000000  0.25000000       0.250
 
 position of ions in fractional coordinates (direct lattice) 
   0.53816205  0.40651151  0.36128886
   0.39416792  0.48058546  0.43839027
   0.55209257  0.56545239  0.44270713
   0.52790438  0.41565376  0.53940021
   0.50352013  0.46689946  0.44553029
 
 position of ions in cartesian coordinates  (Angst):
   5.23141522  4.05673154  3.56630443
   3.81295976  4.79341792  4.32737725
   5.33727242  5.65627458  4.36998915
   5.16518248  4.10986667  5.32445249
   4.89107015  4.65251365  4.39785676
 


--------------------------------------------------------------------------------------------------------


 k-point  1 :   0.2500 0.2500 0.2500  plane waves:   17931
 k-point  2 :  -0.2500 0.2500 0.2500  plane waves:   17902
 k-point  3 :   0.2500-0.2500 0.2500  plane waves:   17912
 k-point  4 :  -0.2500-0.2500 0.2500  plane waves:   17889

 maximum and minimum number of plane-waves per node :      4493     4466

 maximum number of plane-waves:     17931
 maximum index in each direction: 
   IXMAX=   16   IYMAX=   16   IZMAX=   15
   IXMIN=  -16   IYMIN=  -16   IZMIN=  -16


 parallel 3D FFT for wavefunctions:
    minimum data exchange during FFTs selected (reduces bandwidth)
 parallel 3D FFT for charge:
    minimum data exchange during FFTs selected (reduces bandwidth)


 total amount of memory used by VASP MPI-rank0    51240. kBytes
=======================================================================

   base      :      30000. kBytes
   nonl-proj :       2652. kBytes
   fftplans  :       7002. kBytes
   grid      :      11005. kBytes
   one-center:          6. kBytes
   wavefun   :        575. kBytes
 
     INWAV:  cpu time    0.0000: real time    0.0001
 Broyden mixing: mesh for mixing (old mesh)
   NGX = 31   NGY = 33   NGZ = 33
  (NGX  =128   NGY  =140   NGZ  =128)
  gives a total of  33759 points

 initial charge density was supplied:
 charge density of overlapping atoms calculated
 number of electron       8.0000000 magnetization 
 keeping initial charge density in first step


--------------------------------------------------------------------------------------------------------


 Maximum index for augmentation-charges          271 (set IRDMAX)


--------------------------------------------------------------------------------------------------------


 First call to EWALD:  gamma=   0.178
 Maximum number of real-space cells 3x 3x 3
 Maximum number of reciprocal cells 3x 3x 3

    FEWALD:  cpu time    0.0018: real time    0.0018


--------------------------------------- Iteration      1(   1)  ---------------------------------------


    POTLOK:  cpu time    0.1274: real time    0.1306
    SETDIJ:  cpu time    0.0022: real time    0.0022
     EDDAV:  cpu time    0.1784: real time    0.1802
       DOS:  cpu time    0.0009: real time    0.0009
    --------------------------------------------
      LOOP:  cpu time    0.3090: real time    0.3141

 eigenvalue-minimisations  :    96
 total energy-change (2. order) : 0.1314763E+02  (-0.1897258E+03)
 number of electron       8.0000000 magnetization 
 augmentation part        8.0000000 magnetization 

 Free energy of the ion-electron system (eV)
  ---------------------------------------------------
  alpha Z        PSCENC =         0.24583291
  Ewald energy   TEWEN  =       128.90602006
  -Hartree energ DENC   =      -243.81379067
  -exchange      EXHF   =         0.00000000
  -V(xc)+E(xc)   XCENC  =        22.02831312
  PAW double counting   =       117.05815612     -117.66307307
  entropy T*S    EENTRO =        -0.00000000
  eigenvalues    EBANDS =       -90.65558251
  atomic energy  EATOM  =       197.04175453
  Solvation  Ediel_sol  =         0.00000000
  ---------------------------------------------------
  free energy    TOTEN  =        13.14763049 eV

  energy without entropy =       13.14763049  energy(sigma->0) =       13.14763049


--------------------------------------------------------------------------------------------------------




--------------------------------------- Iteration      1(   2)  ---------------------------------------


     EDDAV:  cpu time    0.1349: real time    0.1374
       DOS:  cpu time    0.0003: real time    0.0003
    --------------------------------------------
      LOOP:  cpu time    0.1352: real time    0.1377

 eigenvalue-minimisations  :    64
 total energy-change (2. order) :-0.3634333E+02  (-0.3634333E+02)
 number of electron       8.0000000 magnetization 
 augmentation part        8.0000000 magnetization 

 Free energy of the ion-electron system (eV)
  ---------------------------------------------------
  alpha Z        PSCENC =         0.24583291
  Ewald energy   TEWEN  =       128.90602006
  -Hartree energ DENC   =      -243.81379067
  -exchange      EXHF   =         0.00000000
  -V(xc)+E(xc)   XCENC  =        22.02831312
  PAW double counting   =       117.05815612     -117.66307307
  entropy T*S    EENTRO =        -0.00000000
  eigenvalues    EBANDS =      -126.99891674
  atomic energy  EATOM  =       197.04175453
  Solvation  Ediel_sol  =         0.00000000
  ---------------------------------------------------
  free energy    TOTEN  =       -23.19570373 eV

  energy without entropy =      -23.19570373  energy(sigma->0) =      -23.19570373


--------------------------------------------------------------------------------------------------------




--------------------------------------- Iteration      1(   3)  ---------------------------------------


     EDDAV:  cpu time    0.1317: real time    0.1336
       DOS:  cpu time    0.0002: real time    0.0002
    --------------------------------------------
      LOOP:  cpu time    0.1319: real time    0.1338

 eigenvalue-minimisations  :    64
 total energy-change (2. order) :-0.4226669E+01  (-0.4226669E+01)
 number of electron       8.0000000 magnetization 
 augmentation part        8.0000000 magnetization 

 Free energy of the ion-electron system (eV)
  ---------------------------------------------------
  alpha Z        PSCENC =         0.24583291
  Ewald energy   TEWEN  =       128.90602006
  -Hartree energ DENC   =      -243.81379067
  -exchange      EXHF   =         0.00000000
  -V(xc)+E(xc)   XCENC  =        22.02831312
  PAW double counting   =       117.05815612     -117.66307307
  entropy T*S    EENTRO =        -0.00000000
  eigenvalues    EBANDS =      -131.22558544
  atomic energy  EATOM  =       197.04175453
  Solvation  Ediel_sol  =         0.00000000
  ---------------------------------------------------
  free energy    TOTEN  =       -27.42237244 eV

  energy without entropy =      -27.42237244  energy(sigma->0) =      -27.42237244


--------------------------------------------------------------------------------------------------------




--------------------------------------- Iteration      1(   4)  ---------------------------------------


     EDDAV:  cpu time    0.2190: real time    0.2223
       DOS:  cpu time    0.0003: real time    0.0003
    --------------------------------------------
      LOOP:  cpu time    0.2194: real time    0.2226

 eigenvalue-minimisations  :   128
 total energy-change (2. order) :-0.1625704E+00  (-0.1625704E+00)
 number of electron       8.0000000 magnetization 
 augmentation part        8.0000000 magnetization 

 Free energy of the ion-electron system (eV)
  ---------------------------------------------------
  alpha Z        PSCENC =         0.24583291
  Ewald energy   TEWEN  =       128.90602006
  -Hartree energ DENC   =      -243.81379067
  -exchange      EXHF   =         0.00000000
  -V(xc)+E(xc)   XCENC  =        22.02831312
  PAW double counting   =       117.05815612     -117.66307307
  entropy T*S    EENTRO =        -0.00000000
  eigenvalues    EBANDS =      -131.38815582
  atomic energy  EATOM  =       197.04175453
  Solvation  Ediel_sol  =         0.00000000
  ---------------------------------------------------
  free energy    TOTEN  =       -27.58494281 eV

  energy without entropy =      -27.58494281  energy(sigma->0) =      -27.58494281


--------------------------------------------------------------------------------------------------------




--------------------------------------- Iteration      1(   5)  ---------------------------------------


     EDDAV:  cpu time    0.1757: real time    0.1778
       DOS:  cpu time    0.0002: real time    0.0002
    CHARGE:  cpu time    0.0207: real time    0.0211
    MIXING:  cpu time    0.0037: real time    0.0038
    --------------------------------------------
      LOOP:  cpu time    0.2004: real time    0.2029

 eigenvalue-minimisations  :    96
 total energy-change (2. order) :-0.5312711E-04  (-0.5312728E-04)
 number of electron       8.0000002 magnetization 
 augmentation part        0.2265432 magnetization 

 Broyden mixing:
  rms(total) = 0.87800E+00    rms(broyden)= 0.87775E+00
  rms(prec ) = 0.12403E+01
  weight for this iteration     100.00

 Free energy of the ion-electron system (eV)
  ---------------------------------------------------
  alpha Z        PSCENC =         0.24583291
  Ewald energy   TEWEN  =       128.90602006
  -Hartree energ DENC   =      -243.81379067
  -exchange      EXHF   =         0.00000000
  -V(xc)+E(xc)   XCENC  =        22.02831312
  PAW double counting   =       117.05815612     -117.66307307
  entropy T*S    EENTRO =        -0.00000000
  eigenvalues    EBANDS =      -131.38820894
  atomic energy  EATOM  =       197.04175453
  Solvation  Ediel_sol  =         0.00000000
  ---------------------------------------------------
  free energy    TOTEN  =       -27.58499594 eV

  energy without entropy =      -27.58499594  energy(sigma->0) =      -27.58499594


--------------------------------------------------------------------------------------------------------




--------------------------------------- Iteration      1(   6)  ---------------------------------------


    POTLOK:  cpu time    0.1236: real time    0.1248
    SETDIJ:  cpu time    0.0019: real time    0.0020
    EDDIAG:  cpu time    0.0393: real time    0.0407
  RMM-DIIS:  cpu time    0.1408: real time    0.1430
    ORTHCH:  cpu time    0.0015: real time    0.0015
       DOS:  cpu time    0.0002: real time    0.0002
    CHARGE:  cpu time    0.0177: real time    0.0178
    MIXING:  cpu time    0.0040: real time    0.0040
    --------------------------------------------
      LOOP:  cpu time    0.3290: real time    0.3340

 eigenvalue-minimisations  :    64
 total energy-change (2. order) : 0.2933794E+01  (-0.5437836E+00)
 number of electron       8.0000002 magnetization 
 augmentation part        0.1996453 magnetization 

 Broyden mixing:
  rms(total) = 0.43208E+00    rms(broyden)= 0.43198E+00
  rms(prec ) = 0.55968E+00
  weight for this iteration     100.00

 eigenvalues of (default mixing * dielectric matrix)
  average eigenvalue GAMMA=   1.3071
  1.3071

 Free energy of the ion-electron system (eV)
  ---------------------------------------------------
  alpha Z        PSCENC =         0.24583291
  Ewald energy   TEWEN  =       128.90602006
  -Hartree energ DENC   =      -263.67619453
  -exchange      EXHF   =         0.00000000
  -V(xc)+E(xc)   XCENC  =        23.23425157
  PAW double counting   =       239.54657694     -240.32825053
  entropy T*S    EENTRO =        -0.00000000
  eigenvalues    EBANDS =      -109.62119298
  atomic energy  EATOM  =       197.04175453
  Solvation  Ediel_sol  =         0.00000000
  ---------------------------------------------------
  free energy    TOTEN  =       -24.65120203 eV

  energy without entropy =      -24.65120203  energy(sigma->0) =      -24.65120203


--------------------------------------------------------------------------------------------------------




--------------------------------------- Iteration      1(   7)  ---------------------------------------


    POTLOK:  cpu time    0.1234: real time    0.1259
    SETDIJ:  cpu time    0.0019: real time    0.0019
    EDDIAG:  cpu time    0.0350: real time    0.0353
  RMM-DIIS:  cpu time    0.1341: real time    0.1355
    ORTHCH:  cpu time    0.0015: real time    0.0016
       DOS:  cpu time    0.0003: real time    0.0003
    CHARGE:  cpu time    0.0153: real time    0.0155
    MIXING:  cpu time    0.0041: real time    0.0042
    --------------------------------------------
      LOOP:  cpu time    0.3157: real time    0.3201

 eigenvalue-minimisations  :    64
 total energy-change (2. order) : 0.4989938E+00  (-0.1242766E+00)
 number of electron       8.0000002 magnetization 
 augmentation part        0.1890188 magnetization 

 Broyden mixing:
  rms(total) = 0.22933E+00    rms(broyden)= 0.22927E+00
  rms(prec ) = 0.27657E+00
  weight for this iteration     100.00

 eigenvalues of (default mixing * dielectric matrix)
  average eigenvalue GAMMA=   1.8428
  1.4601  2.2254

 Free energy of the ion-electron system (eV)
  ---------------------------------------------------
  alpha Z        PSCENC =         0.24583291
  Ewald energy   TEWEN  =       128.90602006
  -Hartree energ DENC   =      -275.46694619
  -exchange      EXHF   =         0.00000000
  -V(xc)+E(xc)   XCENC  =        24.09904255
  PAW double counting   =       368.15929238     -368.98125380
  entropy T*S    EENTRO =        -0.00000000
  eigenvalues    EBANDS =       -98.15595066
  atomic energy  EATOM  =       197.04175453
  Solvation  Ediel_sol  =         0.00000000
  ---------------------------------------------------
  free energy    TOTEN  =       -24.15220823 eV

  energy without entropy =      -24.15220823  energy(sigma->0) =      -24.15220823


--------------------------------------------------------------------------------------------------------




--------------------------------------- Iteration      1(   8)  ---------------------------------------


    POTLOK:  cpu time    0.1216: real time    0.1226
    SETDIJ:  cpu time    0.0018: real time    0.0019
    EDDIAG:  cpu time    0.0332: real time    0.0336
  RMM-DIIS:  cpu time    0.1350: real time    0.1364
    ORTHCH:  cpu time    0.0018: real time    0.0018
       DOS:  cpu time    0.0002: real time    0.0002
    CHARGE:  cpu time    0.0157: real time    0.0158
    MIXING:  cpu time    0.0041: real time    0.0042
    --------------------------------------------
      LOOP:  cpu time    0.3134: real time    0.3163

 eigenvalue-minimisations  :    64
 total energy-change (2. order) : 0.1467212E+00  (-0.1629081E-01)
 number of electron       8.0000002 magnetization 
 augmentation part        0.1876276 magnetization 

 Broyden mixing:
  rms(total) = 0.22526E-01    rms(broyden)= 0.22499E-01
  rms(prec ) = 0.52489E-01
  weight for this iteration     100.00

 eigenvalues of (default mixing * dielectric matrix)
  average eigenvalue GAMMA=   1.5512
  2.2476  0.9950  1.4109

 Free energy of the ion-electron system (eV)
  ---------------------------------------------------
  alpha Z        PSCENC =         0.24583291
  Ewald energy   TEWEN  =       128.90602006
  -Hartree energ DENC   =      -280.88302764
  -exchange      EXHF   =         0.00000000
  -V(xc)+E(xc)   XCENC  =        24.63572811
  PAW double counting   =       478.82658112     -479.61648824
  entropy T*S    EENTRO =        -0.00000000
  eigenvalues    EBANDS =       -93.16188787
  atomic energy  EATOM  =       197.04175453
  Solvation  Ediel_sol  =         0.00000000
  ---------------------------------------------------
  free energy    TOTEN  =       -24.00548702 eV

  energy without entropy =      -24.00548702  energy(sigma->0) =      -24.00548702


--------------------------------------------------------------------------------------------------------




--------------------------------------- Iteration      1(   9)  ---------------------------------------


    POTLOK:  cpu time    0.1212: real time    0.1232
    SETDIJ:  cpu time    0.0019: real time    0.0019
    EDDIAG:  cpu time    0.0334: real time    0.0337
  RMM-DIIS:  cpu time    0.1360: real time    0.1373
    ORTHCH:  cpu time    0.0016: real time    0.0016
       DOS:  cpu time    0.0002: real time    0.0002
    CHARGE:  cpu time    0.0157: real time    0.0158
    MIXING:  cpu time    0.0043: real time    0.0044
    --------------------------------------------
      LOOP:  cpu time    0.3142: real time    0.3180

 eigenvalue-minimisations  :    64
 total energy-change (2. order) : 0.5633241E-02  (-0.1112138E-02)
 number of electron       8.0000002 magnetization 
 augmentation part        0.1870538 magnetization 

 Broyden mixing:
  rms(total) = 0.19604E-01    rms(broyden)= 0.19600E-01
  rms(prec ) = 0.40320E-01
  weight for this iteration     100.00

 eigenvalues of (default mixing * dielectric matrix)
  average eigenvalue GAMMA=   2.0957
  1.0033  1.3780  3.0008  3.0008

 Free energy of the ion-electron system (eV)
  ---------------------------------------------------
  alpha Z        PSCENC =         0.24583291
  Ewald energy   TEWEN  =       128.90602006
  -Hartree energ DENC   =      -282.14474686
  -exchange      EXHF   =         0.00000000
  -V(xc)+E(xc)   XCENC  =        24.70560704
  PAW double counting   =       482.37287259     -483.16539913
  entropy T*S    EENTRO =        -0.00000000
  eigenvalues    EBANDS =       -91.96179492
  atomic energy  EATOM  =       197.04175453
  Solvation  Ediel_sol  =         0.00000000
  ---------------------------------------------------
  free energy    TOTEN  =       -23.99985378 eV

  energy without entropy =      -23.99985378  energy(sigma->0) =      -23.99985378


--------------------------------------------------------------------------------------------------------




--------------------------------------- Iteration      1(  10)  ---------------------------------------


    POTLOK:  cpu time    0.1170: real time    0.1192
    SETDIJ:  cpu time    0.0019: real time    0.0019
    EDDIAG:  cpu time    0.0330: real time    0.0334
  RMM-DIIS:  cpu time    0.1367: real time    0.1380
    ORTHCH:  cpu time    0.0016: real time    0.0016
       DOS:  cpu time    0.0004: real time    0.0004
    CHARGE:  cpu time    0.0155: real time    0.0157
    MIXING:  cpu time    0.0043: real time    0.0043
    --------------------------------------------
      LOOP:  cpu time    0.3104: real time    0.3145

 eigenvalue-minimisations  :    64
 total energy-change (2. order) : 0.6032642E-02  (-0.2382440E-02)
 number of electron       8.0000002 magnetization 
 augmentation part        0.1860207 magnetization 

 Broyden mixing:
  rms(total) = 0.27652E-01    rms(broyden)= 0.27650E-01
  rms(prec ) = 0.35104E-01
  weight for this iteration     100.00

 eigenvalues of (default mixing * dielectric matrix)
  average eigenvalue GAMMA=   1.7823
  3.0601  2.4301  1.2217  1.2217  0.9778

 Free energy of the ion-electron system (eV)
  ---------------------------------------------------
  alpha Z        PSCENC =         0.24583291
  Ewald energy   TEWEN  =       128.90602006
  -Hartree energ DENC   =      -284.33040037
  -exchange      EXHF   =         0.00000000
  -V(xc)+E(xc)   XCENC  =        24.77489432
  PAW double counting   =       466.30016132     -467.09616750
  entropy T*S    EENTRO =        -0.00000000
  eigenvalues    EBANDS =       -89.83591641
  atomic energy  EATOM  =       197.04175453
  Solvation  Ediel_sol  =         0.00000000
  ---------------------------------------------------
  free energy    TOTEN  =       -23.99382114 eV

  energy without entropy =      -23.99382114  energy(sigma->0) =      -23.99382114


--------------------------------------------------------------------------------------------------------




--------------------------------------- Iteration      1(  11)  ---------------------------------------


    POTLOK:  cpu time    0.1165: real time    0.1177
    SETDIJ:  cpu time    0.0018: real time    0.0019
    EDDIAG:  cpu time    0.0334: real time    0.0337
  RMM-DIIS:  cpu time    0.1341: real time    0.1354
    ORTHCH:  cpu time    0.0016: real time    0.0016
       DOS:  cpu time    0.0002: real time    0.0002
    CHARGE:  cpu time    0.0153: real time    0.0154
    MIXING:  cpu time    0.0043: real time    0.0043
    --------------------------------------------
      LOOP:  cpu time    0.3072: real time    0.3102

 eigenvalue-minimisations  :    64
 total energy-change (2. order) :-0.6643197E-03  (-0.7379453E-03)
 number of electron       8.0000002 magnetization 
 augmentation part        0.1863604 magnetization 

 Broyden mixing:
  rms(total) = 0.76685E-02    rms(broyden)= 0.76652E-02
  rms(prec ) = 0.13594E-01
  weight for this iteration     100.00

 eigenvalues of (default mixing * dielectric matrix)
  average eigenvalue GAMMA=   2.2711
  4.7925  3.0954  2.4312  1.2950  1.0064  1.0064

 Free energy of the ion-electron system (eV)
  ---------------------------------------------------
  alpha Z        PSCENC =         0.24583291
  Ewald energy   TEWEN  =       128.90602006
  -Hartree energ DENC   =      -284.23665898
  -exchange      EXHF   =         0.00000000
  -V(xc)+E(xc)   XCENC  =        24.78946350
  PAW double counting   =       475.52887561     -476.31760242
  entropy T*S    EENTRO =        -0.00000000
  eigenvalues    EBANDS =       -89.95217066
  atomic energy  EATOM  =       197.04175453
  Solvation  Ediel_sol  =         0.00000000
  ---------------------------------------------------
  free energy    TOTEN  =       -23.99448546 eV

  energy without entropy =      -23.99448546  energy(sigma->0) =      -23.99448546


--------------------------------------------------------------------------------------------------------




--------------------------------------- Iteration      1(  12)  ---------------------------------------


    POTLOK:  cpu time    0.1096: real time    0.1106
    SETDIJ:  cpu time    0.0019: real time    0.0019
    EDDIAG:  cpu time    0.0324: real time    0.0331
  RMM-DIIS:  cpu time    0.1366: real time    0.1380
    ORTHCH:  cpu time    0.0015: real time    0.0015
       DOS:  cpu time    0.0002: real time    0.0002
    CHARGE:  cpu time    0.0153: real time    0.0154
    MIXING:  cpu time    0.0047: real time    0.0047
    --------------------------------------------
      LOOP:  cpu time    0.3023: real time    0.3054

 eigenvalue-minimisations  :    64
 total energy-change (2. order) :-0.9630612E-02  (-0.3659304E-03)
 number of electron       8.0000002 magnetization 
 augmentation part        0.1865870 magnetization 

 Broyden mixing:
  rms(total) = 0.12346E-01    rms(broyden)= 0.12344E-01
  rms(prec ) = 0.16090E-01
  weight for this iteration     100.00

 eigenvalues of (default mixing * dielectric matrix)
  average eigenvalue GAMMA=   2.0142
  4.7848  2.9220  2.4300  1.2433  0.9998  0.9998  0.7197

 Free energy of the ion-electron system (eV)
  ---------------------------------------------------
  alpha Z        PSCENC =         0.24583291
  Ewald energy   TEWEN  =       128.90602006
  -Hartree energ DENC   =      -284.43792240
  -exchange      EXHF   =         0.00000000
  -V(xc)+E(xc)   XCENC  =        24.78178440
  PAW double counting   =       472.59413235     -473.38152928
  entropy T*S    EENTRO =        -0.00000000
  eigenvalues    EBANDS =       -89.75418863
  atomic energy  EATOM  =       197.04175453
  Solvation  Ediel_sol  =         0.00000000
  ---------------------------------------------------
  free energy    TOTEN  =       -24.00411607 eV

  energy without entropy =      -24.00411607  energy(sigma->0) =      -24.00411607


--------------------------------------------------------------------------------------------------------




--------------------------------------- Iteration      1(  13)  ---------------------------------------


    POTLOK:  cpu time    0.1095: real time    0.1105
    SETDIJ:  cpu time    0.0019: real time    0.0019
    EDDIAG:  cpu time    0.0333: real time    0.0337
  RMM-DIIS:  cpu time    0.1778: real time    0.1797
    ORTHCH:  cpu time    0.0016: real time    0.0016
       DOS:  cpu time    0.0002: real time    0.0002
    CHARGE:  cpu time    0.0154: real time    0.0156
    MIXING:  cpu time    0.0049: real time    0.0050
    --------------------------------------------
      LOOP:  cpu time    0.3445: real time    0.3480

 eigenvalue-minimisations  :    64
 total energy-change (2. order) :-0.4493588E-03  (-0.8626503E-04)
 number of electron       8.0000002 magnetization 
 augmentation part        0.1863628 magnetization 

 Broyden mixing:
  rms(total) = 0.52499E-02    rms(broyden)= 0.52497E-02
  rms(prec ) = 0.70745E-02
  weight for this iteration     100.00

 eigenvalues of (default mixing * dielectric matrix)
  average eigenvalue GAMMA=   2.4098
  6.0890  4.0336  2.5013  2.3383  1.2205  1.2205  0.9952  0.8797

 Free energy of the ion-electron system (eV)
  ---------------------------------------------------
  alpha Z        PSCENC =         0.24583291
  Ewald energy   TEWEN  =       128.90602006
  -Hartree energ DENC   =      -284.61614245
  -exchange      EXHF   =         0.00000000
  -V(xc)+E(xc)   XCENC  =        24.78689783
  PAW double counting   =       472.38807592     -473.17777309
  entropy T*S    EENTRO =        -0.00000000
  eigenvalues    EBANDS =       -89.57923113
  atomic energy  EATOM  =       197.04175453
  Solvation  Ediel_sol  =         0.00000000
  ---------------------------------------------------
  free energy    TOTEN  =       -24.00456543 eV

  energy without entropy =      -24.00456543  energy(sigma->0) =      -24.00456543


--------------------------------------------------------------------------------------------------------




--------------------------------------- Iteration      1(  14)  ---------------------------------------


    POTLOK:  cpu time    0.1080: real time    0.1089
    SETDIJ:  cpu time    0.0019: real time    0.0019
    EDDIAG:  cpu time    0.0326: real time    0.0330
  RMM-DIIS:  cpu time    0.1349: real time    0.1363
    ORTHCH:  cpu time    0.0016: real time    0.0024
       DOS:  cpu time    0.0002: real time    0.0002
    CHARGE:  cpu time    0.0152: real time    0.0154
    MIXING:  cpu time    0.0049: real time    0.0050
    --------------------------------------------
      LOOP:  cpu time    0.2992: real time    0.3030

 eigenvalue-minimisations  :    64
 total energy-change (2. order) :-0.2854187E-02  (-0.1555030E-03)
 number of electron       8.0000002 magnetization 
 augmentation part        0.1862005 magnetization 

 Broyden mixing:
  rms(total) = 0.35354E-02    rms(broyden)= 0.35335E-02
  rms(prec ) = 0.46042E-02
  weight for this iteration     100.00

 eigenvalues of (default mixing * dielectric matrix)
  average eigenvalue GAMMA=   2.3218
  6.4052  4.0461  2.4961  2.3784  1.2408  1.2408  0.9129  0.9930  1.1830

 Free energy of the ion-electron system (eV)
  ---------------------------------------------------
  alpha Z        PSCENC =         0.24583291
  Ewald energy   TEWEN  =       128.90602006
  -Hartree energ DENC   =      -284.64382029
  -exchange      EXHF   =         0.00000000
  -V(xc)+E(xc)   XCENC  =        24.77811016
  PAW double counting   =       471.62275948     -472.41415565
  entropy T*S    EENTRO =        -0.00000000
  eigenvalues    EBANDS =       -89.54392081
  atomic energy  EATOM  =       197.04175453
  Solvation  Ediel_sol  =         0.00000000
  ---------------------------------------------------
  free energy    TOTEN  =       -24.00741961 eV

  energy without entropy =      -24.00741961  energy(sigma->0) =      -24.00741961


--------------------------------------------------------------------------------------------------------




--------------------------------------- Iteration      1(  15)  ---------------------------------------


    POTLOK:  cpu time    0.1078: real time    0.1087
    SETDIJ:  cpu time    0.0018: real time    0.0019
    EDDIAG:  cpu time    0.0327: real time    0.0330
  RMM-DIIS:  cpu time    0.1335: real time    0.1358
    ORTHCH:  cpu time    0.0015: real time    0.0015
       DOS:  cpu time    0.0002: real time    0.0002
    CHARGE:  cpu time    0.0154: real time    0.0155
    MIXING:  cpu time    0.0053: real time    0.0054
    --------------------------------------------
      LOOP:  cpu time    0.2981: real time    0.3020

 eigenvalue-minimisations  :    64
 total energy-change (2. order) :-0.2295917E-03  (-0.7530079E-05)
 number of electron       8.0000002 magnetization 
 augmentation part        0.1861939 magnetization 

 Broyden mixing:
  rms(total) = 0.13246E-02    rms(broyden)= 0.13244E-02
  rms(prec ) = 0.17559E-02
  weight for this iteration     100.00

 eigenvalues of (default mixing * dielectric matrix)
  average eigenvalue GAMMA=   2.5257
  7.4837  4.8360  2.8835  2.5725  2.0286  1.2819  1.2819  0.9976  0.9976  0.8942

 Free energy of the ion-electron system (eV)
  ---------------------------------------------------
  alpha Z        PSCENC =         0.24583291
  Ewald energy   TEWEN  =       128.90602006
  -Hartree energ DENC   =      -284.59906358
  -exchange      EXHF   =         0.00000000
  -V(xc)+E(xc)   XCENC  =        24.77661239
  PAW double counting   =       471.78520355     -472.57569170
  entropy T*S    EENTRO =        -0.00000000
  eigenvalues    EBANDS =       -89.58831737
  atomic energy  EATOM  =       197.04175453
  Solvation  Ediel_sol  =         0.00000000
  ---------------------------------------------------
  free energy    TOTEN  =       -24.00764920 eV

  energy without entropy =      -24.00764920  energy(sigma->0) =      -24.00764920


--------------------------------------------------------------------------------------------------------




--------------------------------------- Iteration      1(  16)  ---------------------------------------


    POTLOK:  cpu time    0.1083: real time    0.1098
    SETDIJ:  cpu time    0.0020: real time    0.0020
    EDDIAG:  cpu time    0.0325: real time    0.0328
  RMM-DIIS:  cpu time    0.1338: real time    0.1364
    ORTHCH:  cpu time    0.0017: real time    0.0017
       DOS:  cpu time    0.0002: real time    0.0002
    CHARGE:  cpu time    0.0150: real time    0.0152
    MIXING:  cpu time    0.0054: real time    0.0054
    --------------------------------------------
      LOOP:  cpu time    0.2989: real time    0.3034

 eigenvalue-minimisations  :    64
 total energy-change (2. order) :-0.2087781E-03  (-0.1011205E-04)
 number of electron       8.0000002 magnetization 
 augmentation part        0.1862460 magnetization 

 Broyden mixing:
  rms(total) = 0.89311E-03    rms(broyden)= 0.89264E-03
  rms(prec ) = 0.12043E-02
  weight for this iteration     100.00

 eigenvalues of (default mixing * dielectric matrix)
  average eigenvalue GAMMA=   2.4495
  7.5921  4.7322  3.3242  2.4029  2.1700  1.3321  1.3321  1.0954  1.0954  0.9343
  0.9343

 Free energy of the ion-electron system (eV)
  ---------------------------------------------------
  alpha Z        PSCENC =         0.24583291
  Ewald energy   TEWEN  =       128.90602006
  -Hartree energ DENC   =      -284.57217247
  -exchange      EXHF   =         0.00000000
  -V(xc)+E(xc)   XCENC  =        24.77592976
  PAW double counting   =       471.80738091     -472.59737474
  entropy T*S    EENTRO =        -0.00000000
  eigenvalues    EBANDS =       -89.61522894
  atomic energy  EATOM  =       197.04175453
  Solvation  Ediel_sol  =         0.00000000
  ---------------------------------------------------
  free energy    TOTEN  =       -24.00785798 eV

  energy without entropy =      -24.00785798  energy(sigma->0) =      -24.00785798


--------------------------------------------------------------------------------------------------------




--------------------------------------- Iteration      1(  17)  ---------------------------------------


    POTLOK:  cpu time    0.1103: real time    0.1113
    SETDIJ:  cpu time    0.0019: real time    0.0019
    EDDIAG:  cpu time    0.0327: real time    0.0330
  RMM-DIIS:  cpu time    0.1332: real time    0.1347
    ORTHCH:  cpu time    0.0015: real time    0.0015
       DOS:  cpu time    0.0002: real time    0.0002
    CHARGE:  cpu time    0.0154: real time    0.0154
    MIXING:  cpu time    0.0056: real time    0.0056
    --------------------------------------------
      LOOP:  cpu time    0.3007: real time    0.3036

 eigenvalue-minimisations  :    64
 total energy-change (2. order) :-0.3123794E-04  (-0.3811709E-05)
 number of electron       8.0000002 magnetization 
 augmentation part        0.1862040 magnetization 

 Broyden mixing:
  rms(total) = 0.51025E-03    rms(broyden)= 0.51016E-03
  rms(prec ) = 0.72652E-03
  weight for this iteration     100.00

 eigenvalues of (default mixing * dielectric matrix)
  average eigenvalue GAMMA=   2.5629
  8.3306  5.2078  3.9009  2.5097  2.5097  1.8459  1.3078  1.3078  1.0412  0.9791
  0.9275  0.8871

 Free energy of the ion-electron system (eV)
  ---------------------------------------------------
  alpha Z        PSCENC =         0.24583291
  Ewald energy   TEWEN  =       128.90602006
  -Hartree energ DENC   =      -284.62277976
  -exchange      EXHF   =         0.00000000
  -V(xc)+E(xc)   XCENC  =        24.77834608
  PAW double counting   =       471.80556336     -472.59599472
  entropy T*S    EENTRO =        -0.00000000
  eigenvalues    EBANDS =       -89.56663168
  atomic energy  EATOM  =       197.04175453
  Solvation  Ediel_sol  =         0.00000000
  ---------------------------------------------------
  free energy    TOTEN  =       -24.00788922 eV

  energy without entropy =      -24.00788922  energy(sigma->0) =      -24.00788922


--------------------------------------------------------------------------------------------------------




--------------------------------------- Iteration      1(  18)  ---------------------------------------


    POTLOK:  cpu time    0.1130: real time    0.1141
    SETDIJ:  cpu time    0.0019: real time    0.0019
    EDDIAG:  cpu time    0.0327: real time    0.0330
  RMM-DIIS:  cpu time    0.1349: real time    0.1362
    ORTHCH:  cpu time    0.0016: real time    0.0016
       DOS:  cpu time    0.0002: real time    0.0002
    CHARGE:  cpu time    0.0153: real time    0.0154
    MIXING:  cpu time    0.0056: real time    0.0056
    --------------------------------------------
      LOOP:  cpu time    0.3052: real time    0.3080

 eigenvalue-minimisations  :    64
 total energy-change (2. order) :-0.1267582E-04  (-0.4192233E-06)
 number of electron       8.0000002 magnetization 
 augmentation part        0.1862134 magnetization 

 Broyden mixing:
  rms(total) = 0.70372E-04    rms(broyden)= 0.70361E-04
  rms(prec ) = 0.11451E-03
  weight for this iteration     100.00

 eigenvalues of (default mixing * dielectric matrix)
  average eigenvalue GAMMA=   2.6138
  8.4072  5.4669  3.6478  3.6478  2.4152  2.2693  1.5767  1.3047  1.3047  1.0804
  0.9818  0.9818  0.8947

 Free energy of the ion-electron system (eV)
  ---------------------------------------------------
  alpha Z        PSCENC =         0.24583291
  Ewald energy   TEWEN  =       128.90602006
  -Hartree energ DENC   =      -284.60385649
  -exchange      EXHF   =         0.00000000
  -V(xc)+E(xc)   XCENC  =        24.77737861
  PAW double counting   =       471.75187924     -472.54213571
  entropy T*S    EENTRO =        -0.00000000
  eigenvalues    EBANDS =       -89.58477504
  atomic energy  EATOM  =       197.04175453
  Solvation  Ediel_sol  =         0.00000000
  ---------------------------------------------------
  free energy    TOTEN  =       -24.00790190 eV

  energy without entropy =      -24.00790190  energy(sigma->0) =      -24.00790190


--------------------------------------------------------------------------------------------------------




--------------------------------------- Iteration      1(  19)  ---------------------------------------


    POTLOK:  cpu time    0.1151: real time    0.1159
    SETDIJ:  cpu time    0.0019: real time    0.0019
    EDDIAG:  cpu time    0.0321: real time    0.0323
  RMM-DIIS:  cpu time    0.1064: real time    0.1072
    ORTHCH:  cpu time    0.0015: real time    0.0015
       DOS:  cpu time    0.0002: real time    0.0002
    CHARGE:  cpu time    0.0152: real time    0.0154
    MIXING:  cpu time    0.0058: real time    0.0058
    --------------------------------------------
      LOOP:  cpu time    0.2781: real time    0.2802

 eigenvalue-minimisations  :    48
 total energy-change (2. order) :-0.3541044E-05  (-0.4038034E-07)
 number of electron       8.0000002 magnetization 
 augmentation part        0.1862185 magnetization 

 Broyden mixing:
  rms(total) = 0.19038E-04    rms(broyden)= 0.18964E-04
  rms(prec ) = 0.40045E-04
  weight for this iteration     100.00

 eigenvalues of (default mixing * dielectric matrix)
  average eigenvalue GAMMA=   2.5589
  8.4523  5.5915  3.7913  3.7913  2.4566  2.4566  1.9289  1.2921  1.2921  1.0298
  0.9336  0.9336  0.9374  0.9374

 Free energy of the ion-electron system (eV)
  ---------------------------------------------------
  alpha Z        PSCENC =         0.24583291
  Ewald energy   TEWEN  =       128.90602006
  -Hartree energ DENC   =      -284.60024927
  -exchange      EXHF   =         0.00000000
  -V(xc)+E(xc)   XCENC  =        24.77708941
  PAW double counting   =       471.73290476     -472.52315077
  entropy T*S    EENTRO =        -0.00000000
  eigenvalues    EBANDS =       -89.58810706
  atomic energy  EATOM  =       197.04175453
  Solvation  Ediel_sol  =         0.00000000
  ---------------------------------------------------
  free energy    TOTEN  =       -24.00790544 eV

  energy without entropy =      -24.00790544  energy(sigma->0) =      -24.00790544


--------------------------------------------------------------------------------------------------------




--------------------------------------- Iteration      1(  20)  ---------------------------------------


    POTLOK:  cpu time    0.1166: real time    0.1179
    SETDIJ:  cpu time    0.0018: real time    0.0019
    EDDIAG:  cpu time    0.0328: real time    0.0331
  RMM-DIIS:  cpu time    0.1069: real time    0.1076
    ORTHCH:  cpu time    0.0016: real time    0.0016
       DOS:  cpu time    0.0002: real time    0.0002
    CHARGE:  cpu time    0.0153: real time    0.0154
    MIXING:  cpu time    0.0059: real time    0.0060
    --------------------------------------------
      LOOP:  cpu time    0.2811: real time    0.2837

 eigenvalue-minimisations  :    44
 total energy-change (2. order) :-0.1133010E-05  (-0.1025042E-07)
 number of electron       8.0000002 magnetization 
 augmentation part        0.1862203 magnetization 

 Broyden mixing:
  rms(total) = 0.24979E-04    rms(broyden)= 0.24961E-04
  rms(prec ) = 0.41515E-04
  weight for this iteration     100.00

 eigenvalues of (default mixing * dielectric matrix)
  average eigenvalue GAMMA=   2.5226
  8.4944  5.4539  4.4052  3.1043  2.6091  2.2982  1.9897  1.9897  1.2893  1.2893
  0.8995  0.9611  1.0132  1.0213  1.0213

 Free energy of the ion-electron system (eV)
  ---------------------------------------------------
  alpha Z        PSCENC =         0.24583291
  Ewald energy   TEWEN  =       128.90602006
  -Hartree energ DENC   =      -284.59966238
  -exchange      EXHF   =         0.00000000
  -V(xc)+E(xc)   XCENC  =        24.77703947
  PAW double counting   =       471.73845343     -472.52869603
  entropy T*S    EENTRO =        -0.00000000
  eigenvalues    EBANDS =       -89.58864856
  atomic energy  EATOM  =       197.04175453
  Solvation  Ediel_sol  =         0.00000000
  ---------------------------------------------------
  free energy    TOTEN  =       -24.00790657 eV

  energy without entropy =      -24.00790657  energy(sigma->0) =      -24.00790657


--------------------------------------------------------------------------------------------------------




--------------------------------------- Iteration      1(  21)  ---------------------------------------


    POTLOK:  cpu time    0.1159: real time    0.1167
    SETDIJ:  cpu time    0.0019: real time    0.0019
    EDDIAG:  cpu time    0.0326: real time    0.0329
  RMM-DIIS:  cpu time    0.0947: real time    0.0955
    ORTHCH:  cpu time    0.0015: real time    0.0015
       DOS:  cpu time    0.0003: real time    0.0003
    --------------------------------------------
      LOOP:  cpu time    0.2469: real time    0.2488

 eigenvalue-minimisations  :    34
 total energy-change (2. order) :-0.6198841E-06  (-0.6514513E-09)
 number of electron       8.0000002 magnetization 
 augmentation part        0.1862203 magnetization 

 Free energy of the ion-electron system (eV)
  ---------------------------------------------------
  alpha Z        PSCENC =         0.24583291
  Ewald energy   TEWEN  =       128.90602006
  -Hartree energ DENC   =      -284.60072428
  -exchange      EXHF   =         0.00000000
  -V(xc)+E(xc)   XCENC  =        24.77711885
  PAW double counting   =       471.74383152     -472.53407819
  entropy T*S    EENTRO =        -0.00000000
  eigenvalues    EBANDS =       -89.58766260
  atomic energy  EATOM  =       197.04175453
  Solvation  Ediel_sol  =         0.00000000
  ---------------------------------------------------
  free energy    TOTEN  =       -24.00790719 eV

  energy without entropy =      -24.00790719  energy(sigma->0) =      -24.00790719


--------------------------------------------------------------------------------------------------------




 average (electrostatic) potential at core
  the test charge radii are     0.5201  0.6991
  (the norm of the test charge is              1.0000)
       1 -41.6332       2 -41.5352       3 -41.4773       4 -41.4146       5 -57.9404
 
 
 
 E-fermi :  -8.2344     XC(G=0):  -0.7067     alpha+bet : -0.2138


 k-point     1 :       0.2500    0.2500    0.2500
  band No.  band energies     occupation 
      1     -16.9088      2.00000
      2      -9.5204      2.00000
      3      -9.2121      2.00000
      4      -9.1528      2.00000
      5      -0.3061      0.00000
      6       0.5612      0.00000
      7       0.6722      0.00000
      8       0.7085      0.00000

 k-point     2 :      -0.2500    0.2500    0.2500
  band No.  band energies     occupation 
      1     -16.9087      2.00000
      2      -9.5203      2.00000
      3      -9.2121      2.00000
      4      -9.1527      2.00000
      5      -0.3080      0.00000
      6       0.5682      0.00000
      7       0.6719      0.00000
      8       0.7115      0.00000

 k-point     3 :       0.2500   -0.2500    0.2500
  band No.  band energies     occupation 
      1     -16.9087      2.00000
      2      -9.5202      2.00000
      3      -9.2121      2.00000
      4      -9.1527      2.00000
      5      -0.3159      0.00000
      6       0.5781      0.00000
      7       0.7027      0.00000
      8       0.7283      0.00000

 k-point     4 :      -0.2500   -0.2500    0.2500
  band No.  band energies     occupation 
      1     -16.9087      2.00000
      2      -9.5203      2.00000
      3      -9.2120      2.00000
      4      -9.1527      2.00000
      5      -0.3061      0.00000
      6       0.5687      0.00000
      7       0.6689      0.00000
      8       0.7047      0.00000


--------------------------------------------------------------------------------------------------------


 soft charge-density along one line, spin component           1
         0         1         2         3         4         5         6         7         8         9
 total charge-density along one line
 
 pseudopotential strength for first ion, spin component:           1
 -2.342  -4.036  -0.001  -0.001   0.001
 -4.036  -6.869  -0.003  -0.005   0.002
 -0.001  -0.003  -0.336   0.002  -0.001
 -0.001  -0.005   0.002  -0.335  -0.001
  0.001   0.002  -0.001  -0.001  -0.337
 total augmentation occupancy for first ion, spin component:           1
  3.614  -0.648   0.251   0.349  -0.143
 -0.648   0.131  -0.046  -0.065   0.026
  0.251  -0.046   0.024   0.020  -0.008
  0.349  -0.065   0.020   0.038  -0.011
 -0.143   0.026  -0.008  -0.011   0.015


------------------------ aborting loop because EDIFF is reached ----------------------------------------


    CHARGE:  cpu time    0.0152: real time    0.0153
    FORLOC:  cpu time    0.0110: real time    0.0111
    FORNL :  cpu time    0.0197: real time    0.0197
    STRESS:  cpu time    0.1486: real time    0.1494
    FORCOR:  cpu time    0.1166: real time    0.1173
    FORHAR:  cpu time    0.0374: real time    0.0376
    MIXING:  cpu time    0.0059: real time    0.0060
    OFIELD:  cpu time    0.0000: real time    0.0000

  FORCE on cell =-STRESS in cart. coord.  units (eV):
  Direction    XX          YY          ZZ          XY          YZ          ZX
  --------------------------------------------------------------------------------------
  Alpha Z     0.24583     0.24583     0.24583
  Ewald      43.39789    43.69413    41.81399    -3.65518    -0.63597     0.99425
  Hartree    96.23594    93.12979    95.23659    -1.19237    -0.74527     0.63669
  E(xc)     -27.25812   -27.22781   -27.26018    -0.01616    -0.00752     0.00698
  Local    -198.55706  -194.96624  -196.15115     4.20167     1.57355    -1.62734
  n-local   -16.00561   -15.95663   -15.97597     0.00872    -0.05626     0.03013
  augment     0.11527     0.11010     0.11640     0.00496    -0.00284     0.00067
  Kinetic   101.87792   100.34186   101.91253     0.78501     0.40069    -0.35775
  Fock        0.00000     0.00000     0.00000     0.00000     0.00000     0.00000
  -------------------------------------------------------------------------------------
  Total       0.05206    -0.62897    -0.06194     0.13665     0.52637    -0.31636
  in kB       0.08464    -1.02262    -0.10070     0.22218     0.85581    -0.51436
  external pressure =       -0.35 kB  Pullay stress =        0.00 kB

  kinetic pressure (ideal gas correction) =      0.00 kB
  total pressure  =     -0.35 kB
  Total+kin.     0.085      -1.023      -0.101       0.222       0.856      -0.514

 VOLUME and BASIS-vectors are now :
 -----------------------------------------------------------------------------
  energy-cutoff  :      400.00
  volume of cell :      985.43
      direct lattice vectors                 reciprocal lattice vectors
     9.807864540  0.000000000  0.000000000     0.101958994  0.003008701 -0.002084306
    -0.300358811 10.178572592  0.000000000     0.000000000  0.098245603  0.002230734
     0.208403887 -0.224129206  9.871061247     0.000000000  0.000000000  0.101306230

  length of vectors
     9.807864540 10.183003262  9.875804586     0.102024669  0.098270925  0.101306230


 FORCES acting on ions
    electron-ion (+dipol)            ewald-force                    non-local-force                 convergence-correction
 -----------------------------------------------------------------------------------------------
   -.170E+02 0.297E+02 0.414E+02   0.191E+02 -.332E+02 -.464E+02   -.182E+01 0.322E+01 0.443E+01   0.487E-04 -.106E-03 -.138E-03
   0.526E+02 -.687E+01 0.335E+01   -.585E+02 0.746E+01 -.364E+01   0.553E+01 -.769E+00 0.383E+00   -.170E-03 0.244E-04 -.161E-04
   -.215E+02 -.482E+02 0.124E+01   0.239E+02 0.531E+02 -.133E+01   -.217E+01 -.501E+01 0.149E+00   0.653E-04 0.177E-03 -.897E-05
   -.130E+02 0.256E+02 -.438E+02   0.141E+02 -.279E+02 0.480E+02   -.134E+01 0.265E+01 -.443E+01   0.391E-04 -.963E-04 0.145E-03
   -.124E+01 -.406E+00 -.289E+01   0.137E+01 0.510E+00 0.337E+01   -.812E-01 0.879E-01 0.157E+00   -.380E-04 -.187E-05 -.367E-04
 -----------------------------------------------------------------------------------------------
   -.123E+00 -.176E+00 -.692E+00   -.178E-14 -.355E-14 -.711E-14   0.123E+00 0.176E+00 0.692E+00   -.551E-04 -.274E-05 -.554E-04
 
 
 POSITION                                       TOTAL-FORCE (eV/Angst)
 -----------------------------------------------------------------------------------
      5.23142      4.05673      3.56630         0.210400     -0.219800     -0.600799
      3.81296      4.79342      4.32738        -0.297898     -0.171911      0.087476
      5.33727      5.65627      4.36999         0.210919     -0.159045      0.063148
      5.16518      4.10987      5.32445        -0.172529      0.359023     -0.180345
      4.89107      4.65251      4.39786         0.048797      0.191467      0.630782
 -----------------------------------------------------------------------------------
    total drift:                               -0.000311     -0.000266      0.000262


--------------------------------------------------------------------------------------------------------



  FREE ENERGIE OF THE ION-ELECTRON SYSTEM (eV)
  ---------------------------------------------------
  free  energy   TOTEN  =       -24.00790719 eV

  energy  without entropy=      -24.00790719  energy(sigma->0) =      -24.00790719
 


--------------------------------------------------------------------------------------------------------


    POTLOK:  cpu time    0.1184: real time    0.1193


--------------------------------------------------------------------------------------------------------


           RANDOM_SEED =         172238341                0                0
           RANDOM_SEED =         172238341               30                0
   IONSTEP:  cpu time    0.0026: real time    0.0026

  ENERGY OF THE ELECTRON-ION-THERMOSTAT SYSTEM (eV)
  ---------------------------------------------------
% ion-electron   TOTEN  =       -24.007907  see above
  kinetic energy EKIN   =         0.000263
  kin. lattice  EKIN_LAT=         0.000000  (temperature    0.51 K)
  nose potential ES     =         0.000000
  nose kinetic   EPS    =         0.000000
  ---------------------------------------------------
  total energy   ETOTAL =       -24.007644 eV

  maximum distance moved by ions :      0.17E-03

    WAVPRE:  cpu time    0.0355: real time    0.0366
    FEWALD:  cpu time    0.0005: real time    0.0005
    ORTHCH:  cpu time    0.0084: real time    0.0085
     LOOP+:  cpu time    6.3653: real time    6.4391


--------------------------------------- Iteration      2(   1)  ---------------------------------------


    POTLOK:  cpu time    0.1174: real time    0.1186
    SETDIJ:  cpu time    0.0019: real time    0.0019
     EDDAV:  cpu time    0.1298: real time    0.1308
       DOS:  cpu time    0.0002: real time    0.0002
    CHARGE:  cpu time    0.0150: real time    0.0151
    MIXING:  cpu time    0.0046: real time    0.0054
    --------------------------------------------
      LOOP:  cpu time    0.2691: real time    0.2722

 eigenvalue-minimisations  :    64
 total energy-change (2. order) :-0.2043852E-02  (-0.2150349E-03)
 number of electron       8.0000002 magnetization 
 augmentation part        0.1861115 magnetization 

 Broyden mixing:
  rms(total) = 0.19231E-02    rms(broyden)= 0.19215E-02
  rms(prec ) = 0.22804E-02
  weight for this iteration     100.00

 Free energy of the ion-electron system (eV)
  ---------------------------------------------------
  alpha Z        PSCENC =         0.24583291
  Ewald energy   TEWEN  =       128.83273937
  -Hartree energ DENC   =      -284.56179626
  -exchange      EXHF   =         0.00000000
  -V(xc)+E(xc)   XCENC  =        24.77513286
  PAW double counting   =       471.74746748     -472.53773314
  entropy T*S    EENTRO =        -0.00000000
  eigenvalues    EBANDS =       -89.55334818
  atomic energy  EATOM  =       197.04175453
  Solvation  Ediel_sol  =         0.00000000
  ---------------------------------------------------
  free energy    TOTEN  =       -24.00995042 eV

  energy without entropy =      -24.00995042  energy(sigma->0) =      -24.00995042


--------------------------------------------------------------------------------------------------------




--------------------------------------- Iteration      2(   2)  ---------------------------------------


    POTLOK:  cpu time    0.1196: real time    0.1204
    SETDIJ:  cpu time    0.0019: real time    0.0019
    EDDIAG:  cpu time    0.0323: real time    0.0326
  RMM-DIIS:  cpu time    0.1351: real time    0.1367
    ORTHCH:  cpu time    0.0015: real time    0.0015
       DOS:  cpu time    0.0002: real time    0.0002
    CHARGE:  cpu time    0.0155: real time    0.0157
    MIXING:  cpu time    0.0038: real time    0.0038
    --------------------------------------------
      LOOP:  cpu time    0.3099: real time    0.3128

 eigenvalue-minimisations  :    64
 total energy-change (2. order) : 0.6113347E-06  (-0.6472118E-05)
 number of electron       8.0000002 magnetization 
 augmentation part        0.1861160 magnetization 

 Broyden mixing:
  rms(total) = 0.12421E-02    rms(broyden)= 0.12417E-02
  rms(prec ) = 0.14479E-02
  weight for this iteration     100.00

 eigenvalues of (default mixing * dielectric matrix)
  average eigenvalue GAMMA=   1.9105
  1.9105

 Free energy of the ion-electron system (eV)
  ---------------------------------------------------
  alpha Z        PSCENC =         0.24583291
  Ewald energy   TEWEN  =       128.83273937
  -Hartree energ DENC   =      -284.54663900
  -exchange      EXHF   =         0.00000000
  -V(xc)+E(xc)   XCENC  =        24.77429234
  PAW double counting   =       471.51412434     -472.30421762
  entropy T*S    EENTRO =        -0.00000000
  eigenvalues    EBANDS =       -89.56783668
  atomic energy  EATOM  =       197.04175453
  Solvation  Ediel_sol  =         0.00000000
  ---------------------------------------------------
  free energy    TOTEN  =       -24.00994981 eV

  energy without entropy =      -24.00994981  energy(sigma->0) =      -24.00994981


--------------------------------------------------------------------------------------------------------




--------------------------------------- Iteration      2(   3)  ---------------------------------------


    POTLOK:  cpu time    0.1172: real time    0.1192
    SETDIJ:  cpu time    0.0019: real time    0.0019
    EDDIAG:  cpu time    0.0327: real time    0.0330
  RMM-DIIS:  cpu time    0.1350: real time    0.1362
    ORTHCH:  cpu time    0.0015: real time    0.0015
       DOS:  cpu time    0.0002: real time    0.0002
    CHARGE:  cpu time    0.0155: real time    0.0156
    MIXING:  cpu time    0.0039: real time    0.0040
    --------------------------------------------
      LOOP:  cpu time    0.3080: real time    0.3117

 eigenvalue-minimisations  :    64
 total energy-change (2. order) : 0.7268031E-06  (-0.1162291E-05)
 number of electron       8.0000002 magnetization 
 augmentation part        0.1861328 magnetization 

 Broyden mixing:
  rms(total) = 0.31640E-03    rms(broyden)= 0.31615E-03
  rms(prec ) = 0.38585E-03
  weight for this iteration     100.00

 eigenvalues of (default mixing * dielectric matrix)
  average eigenvalue GAMMA=   1.6052
  1.0953  2.1152

 Free energy of the ion-electron system (eV)
  ---------------------------------------------------
  alpha Z        PSCENC =         0.24583291
  Ewald energy   TEWEN  =       128.83273937
  -Hartree energ DENC   =      -284.53528990
  -exchange      EXHF   =         0.00000000
  -V(xc)+E(xc)   XCENC  =        24.77366027
  PAW double counting   =       471.30992631     -472.09985914
  entropy T*S    EENTRO =        -0.00000000
  eigenvalues    EBANDS =       -89.57871343
  atomic energy  EATOM  =       197.04175453
  Solvation  Ediel_sol  =         0.00000000
  ---------------------------------------------------
  free energy    TOTEN  =       -24.00994908 eV

  energy without entropy =      -24.00994908  energy(sigma->0) =      -24.00994908


--------------------------------------------------------------------------------------------------------




--------------------------------------- Iteration      2(   4)  ---------------------------------------


    POTLOK:  cpu time    0.1178: real time    0.1192
    SETDIJ:  cpu time    0.0019: real time    0.0019
    EDDIAG:  cpu time    0.0327: real time    0.0329
  RMM-DIIS:  cpu time    0.1088: real time    0.1099
    ORTHCH:  cpu time    0.0015: real time    0.0015
       DOS:  cpu time    0.0002: real time    0.0002
    --------------------------------------------
      LOOP:  cpu time    0.2627: real time    0.2655

 eigenvalue-minimisations  :    48
 total energy-change (2. order) : 0.8747608E-07  (-0.3285889E-07)
 number of electron       8.0000002 magnetization 
 augmentation part        0.1861328 magnetization 

 Free energy of the ion-electron system (eV)
  ---------------------------------------------------
  alpha Z        PSCENC =         0.24583291
  Ewald energy   TEWEN  =       128.83273937
  -Hartree energ DENC   =      -284.53849907
  -exchange      EXHF   =         0.00000000
  -V(xc)+E(xc)   XCENC  =        24.77379964
  PAW double counting   =       471.29124310     -472.08121363
  entropy T*S    EENTRO =        -0.00000000
  eigenvalues    EBANDS =       -89.57560586
  atomic energy  EATOM  =       197.04175453
  Solvation  Ediel_sol  =         0.00000000
  ---------------------------------------------------
  free energy    TOTEN  =       -24.00994900 eV

  energy without entropy =      -24.00994900  energy(sigma->0) =      -24.00994900


--------------------------------------------------------------------------------------------------------




 average (electrostatic) potential at core
  the test charge radii are     0.5201  0.6991
  (the norm of the test charge is              1.0000)
       1 -41.6196       2 -41.5305       3 -41.4787       4 -41.4215       5 -57.9421
 
 
 
 E-fermi :  -8.2303     XC(G=0):  -0.6977     alpha+bet : -0.2138


 k-point     1 :       0.2500    0.2500    0.2500
  band No.  band energies     occupation 
      1     -16.9061      2.00000
      2      -9.5142      2.00000
      3      -9.2130      2.00000
      4      -9.1547      2.00000
      5      -0.3033      0.00000
      6       0.5729      0.00000
      7       0.6768      0.00000
      8       0.7134      0.00000

 k-point     2 :      -0.2500    0.2500    0.2500
  band No.  band energies     occupation 
      1     -16.9060      2.00000
      2      -9.5141      2.00000
      3      -9.2130      2.00000
      4      -9.1546      2.00000
      5      -0.3050      0.00000
      6       0.5771      0.00000
      7       0.6778      0.00000
      8       0.7166      0.00000

 k-point     3 :       0.2500   -0.2500    0.2500
  band No.  band energies     occupation 
      1     -16.9060      2.00000
      2      -9.5141      2.00000
      3      -9.2130      2.00000
      4      -9.1546      2.00000
      5      -0.3130      0.00000
      6       0.5905      0.00000
      7       0.7045      0.00000
      8       0.7337      0.00000

 k-point     4 :      -0.2500   -0.2500    0.2500
  band No.  band energies     occupation 
      1     -16.9060      2.00000
      2      -9.5141      2.00000
      3      -9.2129      2.00000
      4      -9.1546      2.00000
      5      -0.3032      0.00000
      6       0.5780      0.00000
      7       0.6744      0.00000
      8       0.7102      0.00000


--------------------------------------------------------------------------------------------------------


 soft charge-density along one line, spin component           1
         0         1         2         3         4         5         6         7         8         9
 total charge-density along one line
 
 pseudopotential strength for first ion, spin component:           1
 -2.342  -4.036  -0.001  -0.001   0.001
 -4.036  -6.869  -0.003  -0.004   0.002
 -0.001  -0.003  -0.336   0.002  -0.001
 -0.001  -0.004   0.002  -0.335  -0.001
  0.001   0.002  -0.001  -0.001  -0.337
 total augmentation occupancy for first ion, spin component:           1
  3.608  -0.647   0.250   0.347  -0.142
 -0.647   0.131  -0.045  -0.064   0.026
  0.250  -0.045   0.024   0.020  -0.008
  0.347  -0.064   0.020   0.038  -0.011
 -0.142   0.026  -0.008  -0.011   0.015


------------------------ aborting loop because EDIFF is reached ----------------------------------------


    CHARGE:  cpu time    0.0152: real time    0.0153
    FORLOC:  cpu time    0.0111: real time    0.0111
    FORNL :  cpu time    0.0195: real time    0.0196
    STRESS:  cpu time    0.1493: real time    0.1500
    FORCOR:  cpu time    0.1182: real time    0.1188
    FORHAR:  cpu time    0.0393: real time    0.0395
    MIXING:  cpu time    0.0053: real time    0.0053
    OFIELD:  cpu time    0.0000: real time    0.0000

  FORCE on cell =-STRESS in cart. coord.  units (eV):
  Direction    XX          YY          ZZ          XY          YZ          ZX
  --------------------------------------------------------------------------------------
  Alpha Z     0.24583     0.24583     0.24583
  Ewald      43.38814    43.60632    41.83827    -3.57310    -0.68013     1.00481
  Hartree    96.22851    93.08438    95.22939    -1.17804    -0.72849     0.62495
  E(xc)     -27.25431   -27.22469   -27.25634    -0.01588    -0.00718     0.00674
  Local    -198.54745  -194.84363  -196.16434     4.12653     1.57120    -1.61334
  n-local   -15.99647   -15.95005   -15.96839     0.00759    -0.05201     0.02786
  augment     0.11545     0.11026     0.11650     0.00476    -0.00250     0.00051
  Kinetic   101.84445   100.34310   101.87940     0.77151     0.38372    -0.34553
  Fock        0.00000     0.00000     0.00000     0.00000     0.00000     0.00000
  -------------------------------------------------------------------------------------
  Total       0.02414    -0.62849    -0.07968     0.14337     0.48461    -0.29400
  in kB       0.03926    -1.02184    -0.12954     0.23309     0.78791    -0.47800
  external pressure =       -0.37 kB  Pullay stress =        0.00 kB

  kinetic pressure (ideal gas correction) =      0.00 kB
  total pressure  =     -0.37 kB
  Total+kin.     0.040      -1.021      -0.128       0.233       0.788      -0.478

 VOLUME and BASIS-vectors are now :
 -----------------------------------------------------------------------------
  energy-cutoff  :      400.00
[...]

  ENERGY OF THE ELECTRON-ION-THERMOSTAT SYSTEM (eV)
  ---------------------------------------------------
% ion-electron   TOTEN  =       -24.021998  see above
  kinetic energy EKIN   =         0.014231
  kin. lattice  EKIN_LAT=         0.000000  (temperature   27.52 K)
  nose potential ES     =         0.000000
  nose kinetic   EPS    =         0.000000
  ---------------------------------------------------
  total energy   ETOTAL =       -24.007767 eV

  maximum distance moved by ions :      0.43E-03

    WAVPRE:  cpu time    0.0417: real time    0.0422
    FEWALD:  cpu time    0.0005: real time    0.0005
    ORTHCH:  cpu time    0.0085: real time    0.0086
 Prediction of Wavefunctions ALPHA= 2.161 BETA=-1.196
     LOOP+:  cpu time    1.9270: real time    1.9460


--------------------------------------- Iteration     10(   1)  ---------------------------------------


    POTLOK:  cpu time    0.1134: real time    0.1161
    SETDIJ:  cpu time    0.0019: real time    0.0019
     EDDAV:  cpu time    0.1513: real time    0.1556
       DOS:  cpu time    0.0002: real time    0.0002
    CHARGE:  cpu time    0.0147: real time    0.0161
    MIXING:  cpu time    0.0037: real time    0.0037
    --------------------------------------------
      LOOP:  cpu time    0.2853: real time    0.2937

 eigenvalue-minimisations  :    80
 total energy-change (2. order) : 0.1309988E-02  (-0.2126576E-04)
 number of electron       7.9999998 magnetization 
 augmentation part        0.1843240 magnetization 

 Broyden mixing:
  rms(total) = 0.11192E-03    rms(broyden)= 0.11168E-03
  rms(prec ) = 0.13485E-03
  weight for this iteration     100.00

 Free energy of the ion-electron system (eV)
  ---------------------------------------------------
  alpha Z        PSCENC =         0.24583291
  Ewald energy   TEWEN  =       127.32713156
  -Hartree energ DENC   =      -283.22698865
  -exchange      EXHF   =         0.00000000
  -V(xc)+E(xc)   XCENC  =        24.70505115
  PAW double counting   =       462.32772002     -463.11248631
  entropy T*S    EENTRO =        -0.00000000
  eigenvalues    EBANDS =       -89.32870338
  atomic energy  EATOM  =       197.04175453
  Solvation  Ediel_sol  =         0.00000000
  ---------------------------------------------------
  free energy    TOTEN  =       -24.02068818 eV

  energy without entropy =      -24.02068818  energy(sigma->0) =      -24.02068818


--------------------------------------------------------------------------------------------------------




--------------------------------------- Iteration     10(   2)  ---------------------------------------


    POTLOK:  cpu time    0.1316: real time    0.1341
    SETDIJ:  cpu time    0.0019: real time    0.0021
    EDDIAG:  cpu time    0.0406: real time    0.0430
  RMM-DIIS:  cpu time    0.1254: real time    0.1305
    ORTHCH:  cpu time    0.0020: real time    0.0020
       DOS:  cpu time    0.0002: real time    0.0002
    CHARGE:  cpu time    0.0182: real time    0.0183
    MIXING:  cpu time    0.0039: real time    0.0039
    --------------------------------------------
      LOOP:  cpu time    0.3238: real time    0.3341

 eigenvalue-minimisations  :    52
 total energy-change (2. order) :-0.1631765E-05  (-0.2903609E-06)
 number of electron       7.9999998 magnetization 
 augmentation part        0.1843274 magnetization 

 Broyden mixing:
  rms(total) = 0.88418E-04    rms(broyden)= 0.88277E-04
  rms(prec ) = 0.11602E-03
  weight for this iteration     100.00

 eigenvalues of (default mixing * dielectric matrix)
  average eigenvalue GAMMA=   0.6862
  0.6862

 Free energy of the ion-electron system (eV)
  ---------------------------------------------------
  alpha Z        PSCENC =         0.24583291
  Ewald energy   TEWEN  =       127.32713156
  -Hartree energ DENC   =      -283.22603979
  -exchange      EXHF   =         0.00000000
  -V(xc)+E(xc)   XCENC  =        24.70498425
  PAW double counting   =       462.31064399     -463.09538564
  entropy T*S    EENTRO =        -0.00000000
  eigenvalues    EBANDS =       -89.32961162
  atomic energy  EATOM  =       197.04175453
  Solvation  Ediel_sol  =         0.00000000
  ---------------------------------------------------
  free energy    TOTEN  =       -24.02068981 eV

  energy without entropy =      -24.02068981  energy(sigma->0) =      -24.02068981


--------------------------------------------------------------------------------------------------------




--------------------------------------- Iteration     10(   3)  ---------------------------------------


    POTLOK:  cpu time    0.4110: real time    0.4142
    SETDIJ:  cpu time    0.0499: real time    0.0500
    EDDIAG:  cpu time    0.0723: real time    0.0753
  RMM-DIIS:  cpu time    0.1113: real time    0.1138
    ORTHCH:  cpu time    0.0015: real time    0.0015
       DOS:  cpu time    0.0002: real time    0.0002
    CHARGE:  cpu time    0.0152: real time    0.0154
    MIXING:  cpu time    0.0040: real time    0.0040
    --------------------------------------------
      LOOP:  cpu time    0.6654: real time    0.6744

 eigenvalue-minimisations  :    48
 total energy-change (2. order) :-0.6971225E-06  (-0.2109435E-07)
 number of electron       7.9999998 magnetization 
 augmentation part        0.1843283 magnetization 

 Broyden mixing:
  rms(total) = 0.72278E-04    rms(broyden)= 0.72260E-04
  rms(prec ) = 0.96390E-04
  weight for this iteration     100.00

 eigenvalues of (default mixing * dielectric matrix)
  average eigenvalue GAMMA=   1.5890
  1.5890  1.5890

 Free energy of the ion-electron system (eV)
  ---------------------------------------------------
  alpha Z        PSCENC =         0.24583291
  Ewald energy   TEWEN  =       127.32713156
  -Hartree energ DENC   =      -283.22557807
  -exchange      EXHF   =         0.00000000
  -V(xc)+E(xc)   XCENC  =        24.70496219
  PAW double counting   =       462.30257619     -463.08730951
  entropy T*S    EENTRO =        -0.00000000
  eigenvalues    EBANDS =       -89.33006030
  atomic energy  EATOM  =       197.04175453
  Solvation  Ediel_sol  =         0.00000000
  ---------------------------------------------------
  free energy    TOTEN  =       -24.02069051 eV

  energy without entropy =      -24.02069051  energy(sigma->0) =      -24.02069051


--------------------------------------------------------------------------------------------------------




--------------------------------------- Iteration     10(   4)  ---------------------------------------


    POTLOK:  cpu time    0.1141: real time    0.1159
    SETDIJ:  cpu time    0.0020: real time    0.0021
    EDDIAG:  cpu time    0.0321: real time    0.0324
  RMM-DIIS:  cpu time    0.1098: real time    0.1111
    ORTHCH:  cpu time    0.0019: real time    0.0019
       DOS:  cpu time    0.0002: real time    0.0002
    CHARGE:  cpu time    0.0151: real time    0.0152
    MIXING:  cpu time    0.0042: real time    0.0043
    --------------------------------------------
      LOOP:  cpu time    0.2795: real time    0.2831

 eigenvalue-minimisations  :    48
 total energy-change (2. order) :-0.2005539E-05  (-0.1522666E-07)
 number of electron       7.9999998 magnetization 
 augmentation part        0.1843300 magnetization 

 Broyden mixing:
  rms(total) = 0.18639E-04    rms(broyden)= 0.18618E-04
  rms(prec ) = 0.35782E-04
  weight for this iteration     100.00

 eigenvalues of (default mixing * dielectric matrix)
  average eigenvalue GAMMA=   1.3273
  1.9373  1.3365  0.7081

 Free energy of the ion-electron system (eV)
  ---------------------------------------------------
  alpha Z        PSCENC =         0.24583291
  Ewald energy   TEWEN  =       127.32713156
  -Hartree energ DENC   =      -283.22427184
  -exchange      EXHF   =         0.00000000
  -V(xc)+E(xc)   XCENC  =        24.70491248
  PAW double counting   =       462.28280678     -463.06752090
  entropy T*S    EENTRO =        -0.00000000
  eigenvalues    EBANDS =       -89.33133804
  atomic energy  EATOM  =       197.04175453
  Solvation  Ediel_sol  =         0.00000000
  ---------------------------------------------------
  free energy    TOTEN  =       -24.02069251 eV

  energy without entropy =      -24.02069251  energy(sigma->0) =      -24.02069251


--------------------------------------------------------------------------------------------------------




--------------------------------------- Iteration     10(   5)  ---------------------------------------


    POTLOK:  cpu time    0.1162: real time    0.1178
    SETDIJ:  cpu time    0.0019: real time    0.0019
    EDDIAG:  cpu time    0.0325: real time    0.0328
  RMM-DIIS:  cpu time    0.1056: real time    0.1064
    ORTHCH:  cpu time    0.0015: real time    0.0015
       DOS:  cpu time    0.0002: real time    0.0002
    --------------------------------------------
      LOOP:  cpu time    0.2578: real time    0.2604

 eigenvalue-minimisations  :    36
 total energy-change (2. order) :-0.2823414E-06  (-0.4631975E-09)
 number of electron       7.9999998 magnetization 
 augmentation part        0.1843300 magnetization 

 Free energy of the ion-electron system (eV)
  ---------------------------------------------------
  alpha Z        PSCENC =         0.24583291
  Ewald energy   TEWEN  =       127.32713156
  -Hartree energ DENC   =      -283.22440451
  -exchange      EXHF   =         0.00000000
  -V(xc)+E(xc)   XCENC  =        24.70491901
  PAW double counting   =       462.28224344     -463.06695900
  entropy T*S    EENTRO =        -0.00000000
  eigenvalues    EBANDS =       -89.33121073
  atomic energy  EATOM  =       197.04175453
  Solvation  Ediel_sol  =         0.00000000
  ---------------------------------------------------
  free energy    TOTEN  =       -24.02069279 eV

  energy without entropy =      -24.02069279  energy(sigma->0) =      -24.02069279


--------------------------------------------------------------------------------------------------------




 average (electrostatic) potential at core
  the test charge radii are     0.5201  0.6991
  (the norm of the test charge is              1.0000)
       1 -41.3491       2 -41.4297       3 -41.5108       4 -41.5897       5 -57.9806
 
 
 
 E-fermi :  -8.2799     XC(G=0):  -0.7008     alpha+bet : -0.2138


 k-point     1 :       0.2500    0.2500    0.2500
  band No.  band energies     occupation 
      1     -16.8545      2.00000
      2      -9.3677      2.00000
      3      -9.2468      2.00000
      4      -9.1968      2.00000
      5      -0.3116      0.00000
      6       0.5635      0.00000
      7       0.6843      0.00000
      8       0.7068      0.00000

 k-point     2 :      -0.2500    0.2500    0.2500
  band No.  band energies     occupation 
      1     -16.8544      2.00000
      2      -9.3676      2.00000
      3      -9.2467      2.00000
      4      -9.1967      2.00000
      5      -0.3126      0.00000
      6       0.5654      0.00000
      7       0.6810      0.00000
      8       0.7108      0.00000

 k-point     3 :       0.2500   -0.2500    0.2500
  band No.  band energies     occupation 
      1     -16.8545      2.00000
      2      -9.3676      2.00000
      3      -9.2468      2.00000
      4      -9.1968      2.00000
      5      -0.3220      0.00000
      6       0.5973      0.00000
      7       0.6977      0.00000
      8       0.7260      0.00000

 k-point     4 :      -0.2500   -0.2500    0.2500
  band No.  band energies     occupation 
      1     -16.8544      2.00000
      2      -9.3676      2.00000
      3      -9.2467      2.00000
      4      -9.1967      2.00000
      5      -0.3118      0.00000
      6       0.5725      0.00000
      7       0.6753      0.00000
      8       0.7074      0.00000


--------------------------------------------------------------------------------------------------------


 soft charge-density along one line, spin component           1
         0         1         2         3         4         5         6         7         8         9
 total charge-density along one line
 
 pseudopotential strength for first ion, spin component:           1
 -2.340  -4.031  -0.001  -0.001   0.001
 -4.031  -6.860  -0.003  -0.004   0.002
 -0.001  -0.003  -0.338   0.002  -0.001
 -0.001  -0.004   0.002  -0.337  -0.001
  0.001   0.002  -0.001  -0.001  -0.339
 total augmentation occupancy for first ion, spin component:           1
  3.474  -0.627   0.221   0.319  -0.129
 -0.627   0.127  -0.041  -0.059   0.024
  0.221  -0.041   0.020   0.017  -0.007
  0.319  -0.059   0.017   0.033  -0.010
 -0.129   0.024  -0.007  -0.010   0.012


------------------------ aborting loop because EDIFF is reached ----------------------------------------


    CHARGE:  cpu time    0.0152: real time    0.0154
    FORLOC:  cpu time    0.0110: real time    0.0111
    FORNL :  cpu time    0.0196: real time    0.0197
    STRESS:  cpu time    0.1494: real time    0.1500
    FORCOR:  cpu time    0.1259: real time    0.1267
    FORHAR:  cpu time    0.0396: real time    0.0398
    MIXING:  cpu time    0.0045: real time    0.0047
    OFIELD:  cpu time    0.0000: real time    0.0000

  FORCE on cell =-STRESS in cart. coord.  units (eV):
  Direction    XX          YY          ZZ          XY          YZ          ZX
  --------------------------------------------------------------------------------------
  Alpha Z     0.24583     0.24583     0.24583
  Ewald      43.66328    40.52353    43.14031    -0.81625    -1.35170     0.91507
  Hartree    96.20630    91.75494    95.26342    -0.57966    -0.31415     0.29091
  E(xc)     -27.17264   -27.16680   -27.17322    -0.00415     0.00094     0.00015
  Local    -198.89155  -190.85529  -197.24069     1.38375     1.25951    -0.97589
  n-local   -15.80176   -15.81988   -15.81473    -0.01329     0.04224    -0.02196
  augment     0.11946     0.11552     0.11739    -0.00021     0.00397    -0.00219
  Kinetic   100.99718   100.70074   101.00526     0.20147    -0.04635    -0.00558
  Fock        0.00000     0.00000     0.00000     0.00000     0.00000     0.00000
  -------------------------------------------------------------------------------------
  Total      -0.63389    -0.50140    -0.45644     0.17166    -0.40555     0.20051
  in kB      -1.03062    -0.81522    -0.74211     0.27910    -0.65937     0.32600
  external pressure =       -0.86 kB  Pullay stress =        0.00 kB

  kinetic pressure (ideal gas correction) =      0.01 kB
  total pressure  =     -0.85 kB
  Total+kin.    -1.016      -0.796      -0.731       0.274      -0.664       0.324

 VOLUME and BASIS-vectors are now :
 -----------------------------------------------------------------------------
  energy-cutoff  :      400.00
  volume of cell :      985.43
      direct lattice vectors                 reciprocal lattice vectors
     9.807864540  0.000000000  0.000000000     0.101958994  0.003008701 -0.002084306
    -0.300358811 10.178572592  0.000000000     0.000000000  0.098245603  0.002230734
     0.208403887 -0.224129206  9.871061247     0.000000000  0.000000000  0.101306230

  length of vectors
     9.807864540 10.183003262  9.875804586     0.102024669  0.098270925  0.101306230


 FORCES acting on ions
    electron-ion (+dipol)            ewald-force                    non-local-force                 convergence-correction
 -----------------------------------------------------------------------------------------------
   -.164E+02 0.281E+02 0.405E+02   0.179E+02 -.306E+02 -.441E+02   -.165E+01 0.283E+01 0.407E+01   0.298E-04 -.168E-04 -.287E-04
   0.520E+02 -.583E+01 0.302E+01   -.571E+02 0.636E+01 -.331E+01   0.534E+01 -.607E+00 0.321E+00   -.529E-04 0.202E-04 0.481E-04
   -.226E+02 -.478E+02 0.115E+01   0.250E+02 0.528E+02 -.128E+01   -.234E+01 -.500E+01 0.129E+00   0.337E-04 0.581E-04 0.484E-04
   -.128E+02 0.253E+02 -.450E+02   0.143E+02 -.282E+02 0.501E+02   -.137E+01 0.271E+01 -.479E+01   0.172E-04 -.807E-06 0.110E-03
   -.223E-01 0.338E+00 0.106E+01   -.450E-01 -.413E+00 -.142E+01   -.135E+00 -.775E-01 -.427E+00   -.265E-04 0.150E-03 0.191E-03
 -----------------------------------------------------------------------------------------------
   0.154E+00 0.151E+00 0.695E+00   -.176E-14 0.355E-14 0.000E+00   -.154E+00 -.152E+00 -.695E+00   0.128E-05 0.210E-03 0.369E-03
 
 
 POSITION                                       TOTAL-FORCE (eV/Angst)
 -----------------------------------------------------------------------------------
      5.24299      4.05014      3.52991        -0.175741      0.336402      0.422804
      3.79494      4.77606      4.33577         0.228084     -0.072723      0.030098
      5.35792      5.64358      4.37550         0.077813      0.022302      0.005924
      5.15254      4.13663      5.31871         0.072451     -0.132617      0.319780
      4.89094      4.65334      4.40021        -0.202182     -0.153209     -0.779171
 -----------------------------------------------------------------------------------
    total drift:                                0.000426      0.000156     -0.000564


--------------------------------------------------------------------------------------------------------



  FREE ENERGIE OF THE ION-ELECTRON SYSTEM (eV)
  ---------------------------------------------------
  free  energy   TOTEN  =       -24.02069279 eV

  energy  without entropy=      -24.02069279  energy(sigma->0) =      -24.02069279
 
 d Force =-0.1305181E-02[-0.171E-02,-0.897E-03]  d Energy =-0.1305599E-02 0.418E-06
 d Force = 0.1242994E+00[ 0.125E+00, 0.124E+00]  d Ewald  = 0.1242991E+00 0.311E-06


--------------------------------------------------------------------------------------------------------


    POTLOK:  cpu time    0.1202: real time    0.1211


--------------------------------------------------------------------------------------------------------


           RANDOM_SEED =         172238341               30                0
   IONSTEP:  cpu time    0.0001: real time    0.0001

  ENERGY OF THE ELECTRON-ION-THERMOSTAT SYSTEM (eV)
  ---------------------------------------------------
% ion-electron   TOTEN  =       -24.020693  see above
  kinetic energy EKIN   =         0.012967
  kin. lattice  EKIN_LAT=         0.000000  (temperature   25.08 K)
  nose potential ES     =         0.000000
  nose kinetic   EPS    =         0.000000
  ---------------------------------------------------
  total energy   ETOTAL =       -24.007726 eV

  maximum distance moved by ions :      0.44E-03


 mean value of Nose-termostat <S>:     1.000 mean value of <T> :    20.355
 mean temperature <T/S>/<1/S>  :    20.355

    WAVPRE:  cpu time    0.0454: real time    0.0459
    FEWALD:  cpu time    0.0006: real time    0.0006
    ORTHCH:  cpu time    0.0085: real time    0.0085
 Prediction of Wavefunctions ALPHA= 2.091 BETA=-1.117
    POTLOK:  cpu time    0.1170: real time    0.1179
    EDDIAG:  cpu time    0.0330: real time    0.0337
     LOOP+:  cpu time    2.5065: real time    2.5459
    4ORBIT:  cpu time    0.0000: real time    0.0000

 total amount of memory used by VASP MPI-rank0    52390. kBytes
=======================================================================

   base      :      30000. kBytes
   nonl-proj :       2652. kBytes
   fftplans  :       7002. kBytes
   grid      :      11005. kBytes
   one-center:          6. kBytes
   wavefun   :       1725. kBytes
 
  
  
 General timing and accounting informations for this job:
 ========================================================
  
                  Total CPU time used (sec):       25.974
                            User time (sec):       24.249
                          System time (sec):        1.726
                         Elapsed time (sec):       26.512
  
                   Maximum memory used (kb):      171016.
                   Average memory used (kb):           0.
  
                          Minor page faults:       223998
                          Major page faults:            3
                 Voluntary context switches:           83
