Water                                   
  0.529180000000000     
    15.000000    0.000000    0.000000
     0.000000   15.000000    0.000000
     0.000000    0.000000   15.000000
   O    H 
     1     2
Direct
  0.000000  0.000000  0.000000
  0.073333  0.904667  0.000000
  0.073333  0.095333  0.000000
 
   48   48   48
  3857.9      3280.0      2401.1      1458.3      750.47      353.83      168.51      89.971      49.686      23.092    
  11.468      6.2909      2.7988      2.5649     0.59918     0.10623      1.0438     -.45080     0.18875     0.48813    
 -.70689     0.54027     0.36536E-01 -.56797     0.73124     -.40837     -.18891     0.68663     -.72176     0.29881    
 0.38808     -.74935     0.87999     0.67043E-01 -.25305      1.7478     0.99461      3.0860      6.4278      11.209    
  29.005      59.075      121.84      291.52      715.37      1621.8      2905.9      3811.1      3473.7      3023.3    
  2271.3      1428.2      765.10      368.62      176.57      92.540      49.831      23.204      11.540      6.3305    
  2.8987      2.4275     0.62589     0.14922     0.93295     -.36314     0.16235     0.42613     -.60195     0.46068    
 0.38999E-01 -.49071     0.62679     -.34458     -.16949     0.59528     -.61606     0.25048     0.34408     -.64253    
 0.77005     0.90027E-01 -.19821      1.5926      1.0504      2.9905      6.1348      10.747      27.459      56.000    
  113.65      264.28      634.88      1410.7      2528.5      3361.6      2536.5      2372.7      1936.5      1350.0    
  800.42      409.92      200.10      99.866      50.109      23.246      11.609      6.3682      3.0751      2.0820    
 0.67933     0.24999     0.67978     -.16062     0.10639     0.28256     -.36107     0.27914     0.41054E-01 -.31161    
 0.38549     -.20043     -.12052     0.38054     -.37435     0.14327     0.23764     -.39246     0.51721     0.13975    
 -.61850E-01  1.2137      1.1432      2.7323      5.3586      9.4396      23.243      47.710      93.245      200.35    
  452.31      948.72      1682.7      2314.2      1523.8      1606.7      1514.8      1247.7      849.09      469.19    
  229.09      107.73      49.434      22.654      11.449      6.2643      3.1111      1.6895     0.71115     0.35085    
 0.44132     0.28368E-01 0.62929E-01 0.14262     -.13390     0.11052     0.33434E-01 -.13635     0.15623     -.70397E-01
 -.64028E-01 0.16744     -.14743     0.50021E-01 0.12326     -.14531     0.27655     0.17408     0.84450E-01 0.80100    
  1.1381      2.3727      4.3589      7.6080      17.563      36.480      68.968      133.43      270.32      528.06    
  897.60      1274.5      799.07      972.43      1099.4      1089.3      857.71      505.96      239.25      106.23    
  45.754      21.066      10.961      5.9314      2.9070      1.3851     0.69999     0.40943     0.30238     0.11365    
 0.50485E-01 0.59737E-01 -.13724E-01 0.25947E-01 0.16280E-01 -.33052E-01 0.34095E-01 -.95262E-02 -.20421E-01 0.41912E-01
 -.27721E-01 0.10645E-01 0.44681E-01 -.36968E-02 0.13934     0.16957     0.17628     0.49941     0.97924      1.9652    
  3.4096      5.7496      11.986      24.922      46.780      83.053      147.50      260.63      424.22      610.61    
  388.43      532.43      704.94      811.06      701.36      430.40      203.35      88.778      38.232      18.486    
  10.030      5.2796      2.4835      1.1744     0.65332     0.41292     0.23321     0.10117     0.56495E-01 0.31221E-01
 0.12807E-01 0.12339E-01 0.36845E-03 0.12336E-02 0.55860E-02 -.38546E-02 0.21393E-02 0.29408E-02 -.66821E-03 0.10909E-01
 0.12044E-01 0.31063E-01 0.85583E-01 0.13763     0.19858     0.33220     0.72139      1.5243      2.6285      4.2295    
  7.6699      15.235      28.877      49.695      80.340      126.37      191.43      276.46      184.93      269.46    
  379.80      462.14      415.01      264.99      133.89      61.656      28.785      15.223      8.4905      4.2470    
  1.9257     0.99053     0.58398     0.36698     0.17674     0.58920E-01 0.59707E-01 0.27787E-01 0.72491E-02 0.17598E-01
 -.58329E-02 0.44184E-02 0.87310E-02 -.10153E-01 0.78476E-02 0.14086E-02 -.43669E-02 0.17883E-01 0.80789E-02 0.19510E-01
 0.57127E-01 0.99633E-01 0.17618     0.24845     0.46827      1.0565      1.9540      3.1059      4.8947      8.6080    
  15.975      27.773      44.053      65.148      92.072      128.72      91.878      131.25      176.84      205.05    
  185.28      127.73      72.474      37.467      20.215      11.657      6.4098      3.0121      1.3829     0.81232    
 0.50796     0.29210     0.11833     0.37555E-01 0.54911E-01 0.30436E-01 0.59360E-02 0.12274E-01 -.29608E-02 0.40648E-02
 0.75820E-02 -.65806E-02 0.60292E-02 0.15072E-02 -.32994E-02 0.17423E-01 0.12401E-01 0.10141E-01 0.30220E-01 0.68420E-01
 0.14435     0.20194     0.29377     0.63256      1.3129      2.2216      3.2633      4.9000      8.1733      13.987    
  22.752      34.259      48.134      65.761      45.250      60.211      75.648      82.945      75.078      55.779    
  35.868      21.979      13.588      8.0829      4.2343      1.9458     0.99411     0.66723     0.42977     0.21056    
 0.72661E-01 0.38693E-01 0.50190E-01 0.33336E-01 0.82005E-02 0.18729E-02 0.24583E-02 0.48469E-02 0.17209E-02 0.15847E-03
 0.34848E-02 -.12250E-02 0.10529E-02 0.13541E-01 0.16030E-01 0.11438E-01 0.11936E-01 0.44886E-01 0.11751     0.17233    
 0.20477     0.34725     0.75937      1.4348      2.1985      3.0529      4.3676      6.6906      10.608      16.499    
  24.228      33.575      19.833      25.507      30.498      32.598      30.396      24.902      18.558      12.991    
  8.4531      4.8969      2.5028      1.2625     0.77521     0.55098     0.33132     0.13595     0.48803E-01 0.43228E-01
 0.46171E-01 0.30174E-01 0.63996E-02 -.19646E-02 0.44367E-02 0.39573E-02 -.39676E-03 0.22451E-02 0.22734E-02 -.14008E-02
 0.15090E-02 0.98489E-02 0.16681E-01 0.14373E-01 0.65512E-02 0.24756E-01 0.84916E-01 0.14386     0.16682     0.21201    
 0.39451     0.78302      1.3398      1.9703      2.6653      3.5683      4.9434      7.1384      10.404      14.694    
  9.7126      12.022      13.742      14.455      13.989      12.436      10.044      7.2203      4.5577      2.5852    
  1.4417     0.89891     0.62974     0.41533     0.21294     0.81023E-01 0.39380E-01 0.39853E-01 0.36314E-01 0.19116E-01
 0.25074E-02 -.39129E-03 0.37591E-02 0.34682E-02 0.14947E-02 0.23774E-02 0.22818E-02 -.21012E-03 -.18156E-04 0.58405E-02
 0.13121E-01 0.13711E-01 0.71093E-02 0.11509E-01 0.47089E-01 0.10104     0.14033     0.16636     0.22405     0.37147    
 0.66466      1.1164      1.6474      2.1708      2.7693      3.7079      5.2204      7.3062      4.7130      5.8767    
  6.7820      7.2170      7.0967      6.3635      5.0413      3.4579      2.1267      1.3139     0.91104     0.67784    
 0.45987     0.25075     0.11097     0.51241E-01 0.35361E-01 0.31175E-01 0.21129E-01 0.76963E-02 0.11429E-02 0.14386E-02
 0.40400E-02 0.40283E-02 0.18560E-02 0.24196E-02 0.23833E-02 -.52178E-04 -.13699E-03 0.22448E-02 0.65919E-02 0.98052E-02
 0.76034E-02 0.77037E-02 0.19871E-01 0.50183E-01 0.98623E-01 0.14334     0.16690     0.19139     0.27610     0.49692    
 0.86045      1.2573      1.6169      2.0341      2.6629      3.5747      1.7995      2.4476      3.0583      3.3595    
  3.2635      2.8247      2.1702      1.5075      1.0298     0.77808     0.63708     0.46922     0.26461     0.11418    
 0.54039E-01 0.41300E-01 0.35733E-01 0.22947E-01 0.79822E-02 0.23598E-02 0.28098E-02 0.34099E-02 0.43026E-02 0.25771E-02
 0.42234E-03 0.13394E-02 0.13065E-02 0.67456E-03 0.12934E-02 0.63143E-03 0.12983E-02 0.50754E-02 0.80367E-02 0.89546E-02
 0.83215E-02 0.14955E-01 0.47803E-01 0.10152     0.13739     0.13808     0.14138     0.20551     0.36142     0.58614    
 0.81140     0.98420      1.1285      1.3558      1.5285      1.5605      1.4574      1.3142      1.2048      1.1099    
 0.96777     0.78499     0.62981     0.52600     0.41645     0.26244     0.11847     0.48433E-01 0.39479E-01 0.43979E-01
 0.35005E-01 0.14368E-01 0.14778E-02 0.26078E-02 0.57200E-02 0.53191E-02 0.29342E-02 0.59677E-03 0.73405E-03 0.77472E-03
 0.16467E-03 0.19090E-02 0.29210E-02 0.11733E-02 -.13341E-03 0.16851E-02 0.81131E-02 0.13404E-01 0.96182E-02 0.40216E-02
 0.14618E-01 0.49303E-01 0.90012E-01 0.10841     0.11007     0.12697     0.16714     0.23035     0.35956     0.61233    
 0.97057      1.3175     0.15373     0.29560     0.46365     0.58480     0.62965     0.61445     0.55748     0.47703    
 0.39375     0.30650     0.20861     0.11614     0.54589E-01 0.36060E-01 0.43524E-01 0.43175E-01 0.25049E-01 0.61364E-02
 -.18847E-03 0.40006E-02 0.74964E-02 0.48244E-02 0.13684E-02 0.68908E-03 0.13635E-02 0.14116E-02 0.45618E-03 0.15115E-02
 0.34871E-02 0.23008E-02 0.25921E-03 0.58069E-03 0.59143E-02 0.14990E-01 0.15304E-01 0.61951E-02 0.49204E-02 0.16622E-01
 0.36448E-01 0.59495E-01 0.77165E-01 0.94697E-01 0.12068     0.14048     0.14085     0.12411     0.97169E-01 0.90936E-01
 0.81427E-01 0.16446     0.26472     0.33114     0.35065     0.34307     0.31496     0.26101     0.19061     0.12370    
 0.76535E-01 0.50485E-01 0.38303E-01 0.38003E-01 0.39189E-01 0.27700E-01 0.11278E-01 0.20613E-02 0.13947E-04 0.36024E-02
 0.59910E-02 0.26093E-02 0.40580E-03 0.69015E-03 0.59655E-03 0.12352E-02 0.79900E-03 0.71836E-03 0.27004E-02 0.20469E-02
 0.31584E-03 0.68346E-03 0.24693E-02 0.84680E-02 0.13069E-01 0.90698E-02 0.54654E-02 0.69338E-02 0.93057E-02 0.17030E-01
 0.33592E-01 0.56230E-01 0.79726E-01 0.95322E-01 0.10053     0.93974E-01 0.71541E-01 0.53954E-01 0.62357     0.51411    
 0.32306     0.18166     0.14241     0.15535     0.14998     0.11000     0.65665E-01 0.41687E-01 0.35014E-01 0.34041E-01
 0.33953E-01 0.31088E-01 0.22209E-01 0.11053E-01 0.36286E-02 0.95879E-03 0.12430E-02 0.23958E-02 0.23711E-02 0.10640E-02
 0.63491E-05 -.26197E-04 0.32559E-03 0.23993E-03 0.24832E-03 0.95497E-03 0.12553E-02 0.72016E-03 0.41781E-03 0.29293E-03
 0.47696E-03 0.24981E-02 0.56683E-02 0.74124E-02 0.76501E-02 0.78286E-02 0.72912E-02 0.55199E-02 0.75322E-02 0.19231E-01
 0.34601E-01 0.45741E-01 0.77860E-01 0.18469     0.37563     0.56355     -.40268     -.26678     -.58676E-01 0.96160E-01
 0.13684     0.97812E-01 0.49952E-01 0.29957E-01 0.29968E-01 0.32109E-01 0.31110E-01 0.28948E-01 0.24239E-01 0.15682E-01
 0.79120E-02 0.39949E-02 0.19132E-02 0.13343E-02 0.18826E-02 0.11730E-02 0.13024E-03 0.26665E-03 0.37373E-03 0.32822E-03
 0.27366E-03 -.13782E-03 0.10277E-03 0.57998E-03 0.17428E-03 0.14504E-04 0.28470E-03 0.10113E-03 0.35250E-03 0.13600E-02
 0.22258E-02 0.35118E-02 0.61002E-02 0.88388E-02 0.10000E-01 0.89474E-02 0.54396E-02 0.33435E-02 0.12375E-01 0.28594E-01
 0.14322E-01 -.76346E-01 -.23708     -.38225     0.17249     0.13121     0.66007E-01 0.16524E-01 0.15498E-02 0.11484E-01
 0.25583E-01 0.32930E-01 0.34467E-01 0.32146E-01 0.26013E-01 0.17044E-01 0.85318E-02 0.40874E-02 0.27519E-02 0.19362E-02
 0.21647E-02 0.25215E-02 0.12953E-02 0.14854E-03 -.19615E-03 -.13658E-03 0.73720E-03 0.74838E-03 -.25427E-03 -.32770E-04
 0.28799E-03 -.19857E-03 -.88711E-04 -.26959E-04 -.20039E-04 0.69352E-03 0.78425E-03 0.78509E-03 0.15706E-02 0.13350E-02
 0.14232E-02 0.49370E-02 0.95206E-02 0.11063E-01 0.99052E-02 0.81660E-02 0.55420E-02 0.40996E-02 0.15364E-01 0.52285E-01
 0.11064     0.16233     0.25327     0.18824     0.85382E-01 0.13298E-01 -.29953E-02 0.11118E-01 0.23475E-01 0.26553E-01
 0.25866E-01 0.21793E-01 0.13344E-01 0.47575E-02 0.89385E-03 0.15591E-02 0.30579E-02 0.33178E-02 0.26503E-02 0.16846E-02
 0.95570E-03 0.33286E-03 -.27589E-03 -.74324E-04 0.42347E-03 0.16650E-03 -.13854E-03 -.10657E-03 -.75530E-04 0.61423E-04
 -.23203E-04 -.86196E-04 0.37875E-03 0.61536E-03 0.83658E-03 0.16435E-02 0.18005E-02 0.83562E-03 -.35555E-04 0.97969E-03
 0.49659E-02 0.87789E-02 0.86917E-02 0.65437E-02 0.39168E-02 0.10543E-02 0.10645E-01 0.57011E-01 0.14486     0.23179    
 -.45845     -.32714     -.12139     0.27288E-01 0.63837E-01 0.32842E-01 0.39846E-02 0.15506E-02 0.77155E-02 0.68961E-02
 0.23068E-02 0.54150E-03 0.18366E-02 0.38312E-02 0.51892E-02 0.47259E-02 0.20689E-02 0.62524E-04 0.42705E-03 0.56557E-03
 -.19653E-03 -.19749E-03 -.16324E-03 -.38162E-03 -.20266E-03 -.33213E-03 -.31433E-03 0.12954E-03 -.70722E-04 -.36105E-04
 0.40482E-03 0.45946E-04 0.49650E-03 0.21301E-02 0.22915E-02 0.12362E-02 0.56103E-03 -.15596E-04 0.39947E-03 0.24564E-02
 0.30291E-02 0.92223E-03 0.30981E-02 0.10393E-01 -.77245E-02 -.99609E-01 -.26738     -.42614     0.39403     0.28771    
 0.11914     -.58140E-02 -.40014E-01 -.16828E-01 0.71916E-02 0.95070E-02 0.23217E-02 -.25662E-03 0.12538E-02 0.21918E-02
 0.32213E-02 0.48130E-02 0.44126E-02 0.21476E-02 0.49381E-03 -.16089E-03 -.29367E-03 0.13296E-04 0.34324E-04 -.35069E-03
 -.49474E-03 -.54858E-03 -.60451E-03 -.37133E-03 -.25967E-03 -.35283E-03 -.14473E-03 0.46877E-04 -.44543E-04 0.23268E-05
 0.12627E-03 0.44460E-03 0.12546E-02 0.15476E-02 0.10410E-02 0.10834E-02 0.10152E-02 -.28797E-03 -.93891E-04 0.24009E-02
 0.71499E-03 -.46574E-02 0.13067E-01 0.92957E-01 0.23458     0.36672     -.52671E-01 -.37649E-01 -.14233E-01 0.34592E-02
 0.90248E-02 0.62188E-02 0.22667E-02 0.11525E-02 0.19880E-02 0.27940E-02 0.38432E-02 0.51605E-02 0.48022E-02 0.26380E-02
 0.92707E-03 0.22677E-03 -.26142E-03 -.24841E-03 0.82315E-04 -.86294E-04 -.23729E-03 -.12398E-03 -.44562E-03 -.62742E-03
 -.25151E-03 -.27213E-03 -.47124E-03 -.25022E-03 -.18902E-03 -.93413E-04 0.21180E-03 0.16511E-04 0.26529E-04 0.57867E-03
 0.45681E-03 0.70314E-03 0.25705E-02 0.37401E-02 0.29767E-02 0.20668E-02 0.13738E-02 0.53662E-03 0.83077E-03 0.17921E-02
 -.11617E-02 -.12913E-01 -.32336E-01 -.49695E-01 -.31424     -.22628     -.89069E-01 0.93260E-02 0.34666E-01 0.16588E-01
 -.87601E-03 -.24463E-02 0.12638E-02 0.23960E-02 0.35277E-02 0.48255E-02 0.34622E-02 0.10047E-02 0.21173E-03 0.48095E-03
 0.52518E-03 0.44202E-03 0.25823E-03 -.26059E-03 -.52758E-03 -.28408E-03 -.31457E-03 -.54080E-03 -.43316E-03 -.45400E-03
 -.52551E-03 -.25939E-03 -.20893E-03 -.20641E-03 0.10822E-03 0.10660E-03 0.30791E-03 0.10694E-02 0.86176E-03 0.43272E-03
 0.18869E-02 0.31738E-02 0.22879E-02 0.15842E-02 0.14839E-02 0.42735E-03 0.21078E-02 0.64924E-02 -.71165E-02 -.69812E-01
 -.18304     -.29119     0.47674     0.34772     0.14165     -.10155E-01 -.48634E-01 -.18323E-01 0.99359E-02 0.11342E-01
 0.19123E-02 -.70532E-03 0.27140E-02 0.32014E-02 0.11012E-02 0.10048E-02 0.11464E-02 0.55397E-03 0.12182E-02 0.13375E-02
 -.80750E-04 -.64616E-03 -.52658E-03 -.59891E-03 -.29440E-03 -.45232E-03 -.98768E-03 -.65825E-03 -.39438E-03 -.53028E-03
 -.20808E-03 -.19376E-03 -.32810E-03 0.27681E-03 0.53228E-03 0.54086E-03 0.11146E-02 0.83034E-03 0.24644E-03 0.12009E-02
 0.13978E-02 -.30678E-03 0.21279E-03 0.35335E-02 0.20786E-02 -.47312E-02 0.13587E-01 0.10741     0.27979     0.44227    
 -.31398     -.22647     -.89412E-01 0.91327E-02 0.34651E-01 0.16592E-01 -.93172E-03 -.25017E-02 0.12538E-02 0.23872E-02
 0.34802E-02 0.47716E-02 0.34412E-02 0.99644E-03 0.18175E-03 0.44230E-03 0.50798E-03 0.43603E-03 0.23480E-03 -.29376E-03
 -.54181E-03 -.28375E-03 -.32829E-03 -.56790E-03 -.44534E-03 -.44831E-03 -.53006E-03 -.28103E-03 -.22020E-03 -.19712E-03
 0.11072E-03 0.88246E-04 0.29531E-03 0.10798E-02 0.86823E-03 0.41363E-03 0.18708E-02 0.31889E-02 0.23032E-02 0.15606E-02
 0.14532E-02 0.44160E-03 0.21319E-02 0.64576E-02 -.71305E-02 -.69582E-01 -.18249     -.29060     -.52666E-01 -.37713E-01
 -.14325E-01 0.33828E-02 0.89703E-02 0.61645E-02 0.22024E-02 0.10883E-02 0.19315E-02 0.27370E-02 0.37770E-02 0.50896E-02
 0.47367E-02 0.25800E-02 0.87361E-03 0.17826E-03 -.30299E-03 -.28578E-03 0.44543E-04 -.12398E-03 -.27078E-03 -.15243E-03
 -.47181E-03 -.65210E-03 -.27257E-03 -.28959E-03 -.48768E-03 -.26573E-03 -.20075E-03 -.10132E-03 0.20375E-03 0.64258E-05
 0.17343E-04 0.57255E-03 0.45125E-03 0.69626E-03 0.25656E-02 0.37391E-02 0.29736E-02 0.20554E-02 0.13582E-02 0.52446E-03
 0.81771E-03 0.17689E-02 -.11840E-02 -.12904E-01 -.32283E-01 -.49638E-01 0.39367     0.28779     0.11939     -.57200E-02
 -.40111E-01 -.16955E-01 0.71184E-02 0.94338E-02 0.22059E-02 -.37246E-03 0.11754E-02 0.21182E-02 0.31165E-02 0.47020E-02
 0.43339E-02 0.20897E-02 0.42533E-03 -.23320E-03 -.34482E-03 -.25209E-04 -.18099E-04 -.41036E-03 -.53253E-03 -.56680E-03
 -.63368E-03 -.41505E-03 -.28857E-03 -.35888E-03 -.15581E-03 0.18660E-04 -.64494E-04 0.40641E-05 0.12342E-03 0.42035E-03
 0.12365E-02 0.15575E-02 0.10490E-02 0.10590E-02 0.98724E-03 -.28196E-03 -.86174E-04 0.23588E-02 0.65880E-03 -.46619E-02
 0.13028E-01 0.92655E-01 0.23394     0.36602     -.45860     -.32720     -.12142     0.27205E-01 0.63703E-01 0.32698E-01
 0.38495E-02 0.14098E-02 0.75621E-02 0.67494E-02 0.21840E-02 0.43304E-03 0.17238E-02 0.37129E-02 0.50778E-02 0.46266E-02
 0.19772E-02 -.22543E-04 0.35184E-03 0.49869E-03 -.26018E-03 -.25731E-03 -.21406E-03 -.42407E-03 -.24309E-03 -.37148E-03
 -.34682E-03 0.10525E-03 -.92657E-04 -.58298E-04 0.38695E-03 0.34470E-04 0.48611E-03 0.21178E-02 0.22826E-02 0.12320E-02
 0.55212E-03 -.35134E-04 0.37955E-03 0.24460E-02 0.30179E-02 0.89484E-03 0.30621E-02 0.10365E-01 -.77633E-02 -.99712E-01
 -.26756     -.42636     0.25346     0.18795     0.84908E-01 0.12957E-01 -.31595E-02 0.10975E-01 0.23269E-01 0.26335E-01
 0.25683E-01 0.21618E-01 0.13155E-01 0.45870E-02 0.76634E-03 0.14409E-02 0.29156E-02 0.31730E-02 0.25358E-02 0.15889E-02
 0.85206E-03 0.23232E-03 -.34660E-03 -.12653E-03 0.35687E-03 0.89717E-04 -.19114E-03 -.13196E-03 -.10728E-03 0.12907E-04
 -.59182E-04 -.96189E-04 0.36741E-03 0.58630E-03 0.81592E-03 0.16495E-02 0.18039E-02 0.80936E-03 -.65516E-04 0.97837E-03
 0.49685E-02 0.87477E-02 0.86530E-02 0.65425E-02 0.39153E-02 0.98846E-03 0.10604E-01 0.57221E-01 0.14539     0.23236    
 0.17244     0.13099     0.65722E-01 0.16271E-01 0.13441E-02 0.11278E-01 0.25352E-01 0.32689E-01 0.34229E-01 0.31907E-01
 0.25775E-01 0.16823E-01 0.83394E-02 0.39127E-02 0.25840E-02 0.17793E-02 0.20243E-02 0.23923E-02 0.11738E-02 0.43057E-04
 -.28035E-03 -.21206E-03 0.65573E-03 0.66798E-03 -.31492E-03 -.73056E-04 0.25024E-03 -.24185E-03 -.12629E-03 -.50473E-04
 -.37897E-04 0.67300E-03 0.76718E-03 0.77747E-03 0.15637E-02 0.13198E-02 0.14083E-02 0.49332E-02 0.95193E-02 0.11049E-01
 0.98843E-02 0.81485E-02 0.55137E-02 0.40400E-02 0.15302E-01 0.52291E-01 0.11073     0.16242     -.40311     -.26680    
 -.58572E-01 0.96082E-01 0.13656     0.97492E-01 0.49683E-01 0.29687E-01 0.29655E-01 0.31797E-01 0.30839E-01 0.28689E-01
 0.23964E-01 0.15422E-01 0.77072E-02 0.38296E-02 0.17482E-02 0.11732E-02 0.17536E-02 0.10701E-02 0.22746E-04 0.15440E-03
 0.28423E-03 0.26378E-03 0.20832E-03 -.20817E-03 0.52381E-04 0.55388E-03 0.14424E-03 -.29405E-04 0.25359E-03 0.94643E-04
 0.34210E-03 0.13293E-02 0.22052E-02 0.35247E-02 0.61153E-02 0.88231E-02 0.99811E-02 0.89613E-02 0.54512E-02 0.32980E-02
 0.12308E-01 0.28573E-01 0.14264E-01 -.76670E-01 -.23775     -.38300     0.62327     0.51397     0.32293     0.18142    
 0.14204     0.15493     0.14957     0.10960     0.65272E-01 0.41319E-01 0.34679E-01 0.33722E-01 0.33636E-01 0.30787E-01
 0.21946E-01 0.10832E-01 0.34398E-02 0.79789E-03 0.11041E-02 0.22638E-02 0.22375E-02 0.94275E-03 -.84696E-04 -.95315E-04
 0.25456E-03 0.16388E-03 0.18771E-03 0.91899E-03 0.12276E-02 0.68597E-03 0.38433E-03 0.27029E-03 0.46022E-03 0.24824E-02
 0.56637E-02 0.74243E-02 0.76620E-02 0.78251E-02 0.72841E-02 0.55251E-02 0.75359E-02 0.19212E-01 0.34576E-01 0.45734E-01
 0.77821E-01 0.18450     0.37527     0.56313     0.81524E-01 0.16401     0.26403     0.33056     0.35020     0.34257    
 0.31436     0.26042     0.19011     0.12324     0.76080E-01 0.50073E-01 0.37968E-01 0.37699E-01 0.38867E-01 0.27396E-01
 0.11053E-01 0.19044E-02 -.13975E-03 0.34299E-02 0.58356E-02 0.24935E-02 0.31096E-03 0.60049E-03 0.51913E-03 0.11703E-02
 0.73405E-03 0.65975E-03 0.26700E-02 0.20356E-02 0.28666E-03 0.63474E-03 0.24471E-02 0.84911E-02 0.13093E-01 0.90597E-02
 0.54532E-02 0.69581E-02 0.93361E-02 0.17021E-01 0.33580E-01 0.56275E-01 0.79789E-01 0.95313E-01 0.10052     0.94186E-01
 0.72061E-01 0.54483E-01 0.15371     0.29516     0.46299     0.58417     0.62906     0.61378     0.55673     0.47629    
 0.39309     0.30587     0.20801     0.11562     0.54183E-01 0.35715E-01 0.43171E-01 0.42828E-01 0.24772E-01 0.59401E-02
 -.35474E-03 0.38260E-02 0.73267E-02 0.46856E-02 0.12604E-02 0.59813E-03 0.12823E-02 0.13379E-02 0.38982E-03 0.14613E-02
 0.34599E-02 0.22813E-02 0.22495E-03 0.54292E-03 0.59091E-02 0.15020E-01 0.15329E-01 0.61897E-02 0.49185E-02 0.16659E-01
 0.36501E-01 0.59526E-01 0.77193E-01 0.94765E-01 0.12076     0.14051     0.14087     0.12426     0.97504E-01 0.91248E-01
  1.5279      1.5603      1.4572      1.3137      1.2040      1.1090     0.96684     0.78411     0.62895     0.52516    
 0.41568     0.26178     0.11792     0.47989E-01 0.39107E-01 0.43634E-01 0.34683E-01 0.14108E-01 0.12955E-02 0.24555E-02
 0.55473E-02 0.51449E-02 0.28079E-02 0.51476E-03 0.65050E-03 0.68147E-03 0.10046E-03 0.18860E-02 0.28988E-02 0.11263E-02
 -.17377E-03 0.16843E-02 0.81322E-02 0.13410E-01 0.96209E-02 0.40489E-02 0.14663E-01 0.49349E-01 0.90076E-01 0.10851    
 0.11017     0.12703     0.16721     0.23048     0.35963     0.61207     0.96990      1.3167      1.7991      2.4474    
  3.0579      3.3588      3.2624      2.8234      2.1689      1.5063      1.0286     0.77704     0.63613     0.46838    
 0.26391     0.11364     0.53614E-01 0.40936E-01 0.35397E-01 0.22658E-01 0.77647E-02 0.21914E-02 0.26463E-02 0.32453E-02
 0.41650E-02 0.24745E-02 0.33408E-03 0.12589E-02 0.12505E-02 0.64393E-03 0.12618E-02 0.58997E-03 0.12739E-02 0.50844E-02
 0.80549E-02 0.89585E-02 0.83303E-02 0.15001E-01 0.47881E-01 0.10161     0.13749     0.13821     0.14152     0.20564    
 0.36159     0.58638     0.81160     0.98415      1.1281      1.3553      4.7133      5.8761      6.7808      7.2156    
  7.0952      6.3617      5.0394      3.4561      2.1252      1.3126     0.90988     0.67683     0.45906     0.25012    
 0.11045     0.50821E-01 0.35030E-01 0.30891E-01 0.20862E-01 0.74732E-02 0.99046E-03 0.13207E-02 0.39045E-02 0.38889E-02
 0.17640E-02 0.23752E-02 0.23357E-02 -.12119E-03 -.18733E-03 0.22386E-02 0.65987E-02 0.97965E-02 0.76024E-02 0.77369E-02
 0.19921E-01 0.50232E-01 0.98705E-01 0.14349     0.16706     0.19154     0.27627     0.49721     0.86081      1.2577    
  1.6172      2.0348      2.6639      3.5757      9.7130      12.021      13.741      14.453      13.987      12.434    
  10.042      7.2178      4.5556      2.5834      1.4403     0.89777     0.62882     0.41457     0.21232     0.80559E-01
 0.39038E-01 0.39551E-01 0.36014E-01 0.18869E-01 0.23541E-02 -.49712E-03 0.36328E-02 0.33321E-02 0.14053E-02 0.23356E-02
 0.22331E-02 -.28377E-03 -.70779E-04 0.58408E-02 0.13140E-01 0.13711E-01 0.71098E-02 0.11551E-01 0.47166E-01 0.10112    
 0.14044     0.16653     0.22425     0.37169     0.66494      1.1168      1.6479      2.1713      2.7698      3.7088    
  5.2216      7.3072      19.833      25.507      30.498      32.596      30.393      24.898      18.555      12.988    
  8.4503      4.8946      2.5010      1.2612     0.77415     0.55008     0.33063     0.13547     0.48433E-01 0.42888E-01
 0.45872E-01 0.29950E-01 0.62342E-02 -.21041E-02 0.43171E-02 0.38604E-02 -.48072E-03 0.21703E-02 0.22194E-02 -.14360E-02
 0.14740E-02 0.98217E-02 0.16690E-01 0.14409E-01 0.65762E-02 0.24778E-01 0.84994E-01 0.14401     0.16698     0.21216    
 0.39473     0.78338      1.3402      1.9708      2.6659      3.5691      4.9442      7.1390      10.405      14.694    
  45.250      60.212      75.648      82.943      75.074      55.774      35.864      21.975      13.584      8.0801    
  4.2321      1.9442     0.99293     0.66626     0.42903     0.21004     0.72271E-01 0.38360E-01 0.49908E-01 0.33116E-01
 0.80269E-02 0.17270E-02 0.23422E-02 0.47564E-02 0.16376E-02 0.82961E-04 0.34368E-02 -.12487E-02 0.10276E-02 0.13517E-01
 0.16039E-01 0.11476E-01 0.11968E-01 0.44922E-01 0.11761     0.17249     0.20495     0.34745     0.75966      1.4353    
  2.1991      3.0535      4.3683      6.6917      10.609      16.500      24.228      33.576      91.881      131.26    
  176.84      205.05      185.28      127.72      72.467      37.462      20.211      11.654      6.4073      3.0103    
  1.3817     0.81139     0.50719     0.29150     0.11794     0.37275E-01 0.54643E-01 0.30185E-01 0.57657E-02 0.12171E-01
 -.30693E-02 0.39408E-02 0.74976E-02 -.66113E-02 0.59972E-02 0.14490E-02 -.33334E-02 0.17443E-01 0.12429E-01 0.10140E-01
 0.30236E-01 0.68512E-01 0.14449     0.20206     0.29393     0.63286      1.3133      2.2221      3.2639      4.9008    
  8.1743      13.988      22.754      34.261      48.136      65.764      184.93      269.47      379.80      462.14    
  415.01      264.98      133.88      61.649      28.781      15.220      8.4879      4.2450      1.9244     0.98962    
 0.58324     0.36638     0.17633     0.58648E-01 0.59463E-01 0.27550E-01 0.70835E-02 0.17507E-01 -.59246E-02 0.43034E-02
 0.86519E-02 -.10176E-01 0.78227E-02 0.13509E-02 -.44032E-02 0.17907E-01 0.81122E-02 0.19510E-01 0.57150E-01 0.99737E-01
 0.17632     0.24857     0.46844      1.0568      1.9545      3.1064      4.8953      8.6089      15.976      27.775    
  44.054      65.150      92.075      128.72      388.44      532.43      704.95      811.06      701.35      430.39    
  203.34      88.771      38.227      18.482      10.027      5.2778      2.4821      1.1735     0.65268     0.41240    
 0.23278     0.10086     0.56299E-01 0.31060E-01 0.12639E-01 0.12213E-01 0.30164E-03 0.11816E-02 0.55143E-02 -.39248E-02
 0.21161E-02 0.29400E-02 -.69659E-03 0.10882E-01 0.12064E-01 0.31118E-01 0.85636E-01 0.13768     0.19868     0.33238    
 0.72160      1.5246      2.6289      4.2301      7.6706      15.236      28.878      49.695      80.340      126.37    
  191.43      276.46      799.06      972.44      1099.4      1089.3      857.70      505.95      239.24      106.22    
  45.749      21.063      10.959      5.9296      2.9057      1.3844     0.69943     0.40892     0.30199     0.11342    
 0.50338E-01 0.59558E-01 -.13891E-01 0.25886E-01 0.16243E-01 -.33133E-01 0.34015E-01 -.95551E-02 -.20408E-01 0.41883E-01
 -.27781E-01 0.10659E-01 0.44736E-01 -.36776E-02 0.13936     0.16964     0.17642     0.49956     0.97940      1.9654    
  3.4100      5.7501      11.987      24.922      46.781      83.053      147.50      260.63      424.20      610.60    
  1523.8      1606.7      1514.9      1247.7      849.09      469.18      229.08      107.72      49.430      22.651    
  11.447      6.2625      3.1102      1.6892     0.71058     0.35017     0.44108     0.28439E-01 0.62796E-01 0.14222    
 -.13404     0.11073     0.33426E-01 -.13665     0.15612     -.70192E-01 -.63931E-01 0.16719     -.14758     0.50267E-01
 0.12343     -.14552     0.27640     0.17436     0.84792E-01 0.80091      1.1380      2.3732      4.3596      7.6082    
  17.563      36.481      68.968      133.43      270.31      528.05      897.57      1274.4      2536.5      2372.7    
  1936.5      1350.1      800.42      409.92      200.09      99.861      50.107      23.244      11.607      6.3665    
  3.0746      2.0822     0.67877     0.24915     0.67971     -.16023     0.10625     0.28194     -.36116     0.27963    
 0.41065E-01 -.31215     0.38536     -.19998     -.12036     0.38005     -.37460     0.14376     0.23794     -.39291    
 0.51689     0.14025     -.61328E-01  1.2134      1.1428      2.7330      5.3595      9.4394      23.243      47.711    
  93.246      200.34      452.30      948.69      1682.6      2314.1      3473.6      3023.3      2271.4      1428.2    
  765.11      368.62      176.57      92.537      49.830      23.203      11.539      6.3294      2.8986      2.4278    
 0.62552     0.14859     0.93297     -.36276     0.16225     0.42563     -.60199     0.46111     0.39011E-01 -.49116    
 0.62670     -.34418     -.16936     0.59486     -.61626     0.25090     0.34432     -.64292     0.76977     0.90448E-01
 -.19780      1.5922      1.0501      2.9910      6.1355      10.746      27.458      56.001      113.65      264.28    
  634.87      1410.7      2528.4      3361.5      3670.1      3118.1      2229.6      1324.0      680.17      323.30    
  157.45      85.508      47.228      22.016      10.983      6.0700      2.8156      2.4193     0.59895     0.15084    
 0.93353     -.37297     0.17449     0.42037     -.60334     0.47002     0.29570E-01 -.48581     0.62994     -.35161    
 -.16127     0.59090     -.61823     0.25799     0.33547     -.63902     0.77197     0.82689E-01 -.18674      1.5942    
  1.0620      3.0215      6.1619      10.850      27.695      56.493      114.82      267.62      645.91      1447.8    
  2630.8      3545.4      3275.0      2841.9      2087.2      1286.6      688.25      334.41      163.88      87.510    
  47.272      22.114      11.057      6.1090      2.8982      2.2943     0.62278     0.18665     0.83478     -.29742    
 0.14955     0.36614     -.51173     0.40012     0.32201E-01 -.41864     0.53834     -.29582     -.14445     0.51110    
 -.52576     0.21584     0.29665     -.54627     0.67468     0.10172     -.13894      1.4549      1.1046      2.9302    
  5.8883      10.400      26.217      53.561      107.30      243.26      574.95      1261.6      2285.0      3110.6    
  2340.0      2172.1      1738.5      1194.8      706.29      365.99      182.76      93.196      47.258      22.126    
  11.135      6.1456      3.0341      1.9788     0.66983     0.27051     0.61046     -.12320     0.97183E-01 0.24161    
 -.30216     0.24125     0.35072E-01 -.26342     0.32775     -.17013     -.10203     0.32432     -.31512     0.12287    
 0.20335     -.32977     0.45193     0.14264     -.20131E-01  1.1158      1.1671      2.6814      5.1629      9.1342    
  22.193      45.642      88.440      185.86      412.16      854.75      1517.0      2115.0      1377.3      1435.1    