 vasp.5.4.4.18Apr17-6-g9f103f2a35 (build Jul 09 2021 13:05:15) complex          
  
 executed on             LinuxIFC date 2021.11.04  19:03:33
 running on   16 total cores
 distrk:  each k-point on   16 cores,    1 groups
 distr:  one band on NCORES_PER_BAND=   4 cores,    4 groups


--------------------------------------------------------------------------------------------------------


 INCAR:
 POTCAR:    PAW_PBE H 15Jun2001                   
 POTCAR:    PAW_PBE C 08Apr2002                   
 POTCAR:    PAW_PBE H 15Jun2001                   
   VRHFIN =H: ultrasoft test                                                    
   LEXCH  = PE                                                                  
   EATOM  =    12.4884 eV,    0.9179 Ry                                         
                                                                                
   TITEL  = PAW_PBE H 15Jun2001                                                 
   LULTRA =        F    use ultrasoft PP ?                                      
   IUNSCR =        0    unscreen: 0-lin 1-nonlin 2-no                           
   RPACOR =    0.000    partial core radius                                     
   POMASS =    1.000; ZVAL   =    1.000    mass and valenz                      
   RCORE  =    1.100    outmost cutoff radius                                   
   RWIGS  =    0.700; RWIGS  =    0.370    wigner-seitz radius (au A)           
   ENMAX  =  250.000; ENMIN  =  200.000 eV                                      
   RCLOC  =    0.701    cutoff for local pot                                    
   LCOR   =        T    correct aug charges                                     
   LPAW   =        T    paw PP                                                  
   EAUG   =  400.000                                                            
   RMAX   =    1.123    core radius for proj-oper                               
   RAUG   =    1.200    factor for augmentation sphere                          
   RDEP   =    1.112    radius for radial grids                                 
   RDEPT  =    0.926    core radius for aug-charge                              
                                                                                
   Atomic configuration                                                         
    2 entries                                                                   
     n  l   j            E        occ.                                          
     1  0  0.50        -6.4927   1.0000                                         
     2  1  0.50        -3.4015   0.0000                                         
   Description                                                                  
     l       E           TYP  RCUT    TYP  RCUT                                 
     0     -6.4927494     23  1.100                                             
     0      6.8029130     23  1.100                                             
     1     -4.0817478     23  1.100                                             
  local pseudopotential read in
  atomic valenz-charges read in
  non local Contribution for L=           0  read in
    real space projection operators read in
  non local Contribution for L=           0  read in
    real space projection operators read in
  non local Contribution for L=           1  read in
    real space projection operators read in
    PAW grid and wavefunctions read in
 
   number of l-projection  operators is LMAX  =           3
   number of lm-projection operators is LMMAX =           5
 
 POTCAR:    PAW_PBE C 08Apr2002                   
   VRHFIN =C: s2p2                                                              
   LEXCH  = PE                                                                  
   EATOM  =   147.1560 eV,   10.8157 Ry                                         
                                                                                
   TITEL  = PAW_PBE C 08Apr2002                                                 
   LULTRA =        F    use ultrasoft PP ?                                      
   IUNSCR =        1    unscreen: 0-lin 1-nonlin 2-no                           
   RPACOR =    1.200    partial core radius                                     
   POMASS =   12.011; ZVAL   =    4.000    mass and valenz                      
   RCORE  =    1.500    outmost cutoff radius                                   
   RWIGS  =    1.630; RWIGS  =    0.863    wigner-seitz radius (au A)           
   ENMAX  =  400.000; ENMIN  =  300.000 eV                                      
   ICORE  =        2    local potential                                         
   LCOR   =        T    correct aug charges                                     
   LPAW   =        T    paw PP                                                  
   EAUG   =  644.873                                                            
   DEXC   =    0.000                                                            
   RMAX   =    1.529    core radius for proj-oper                               
   RAUG   =    1.300    factor for augmentation sphere                          
   RDEP   =    1.501    radius for radial grids                                 
   RDEPT  =    1.300    core radius for aug-charge                              
                                                                                
   Atomic configuration                                                         
    4 entries                                                                   
     n  l   j            E        occ.                                          
     1  0  0.50      -273.3789   2.0000                                         
     2  0  0.50       -13.7508   2.0000                                         
     2  1  0.50        -5.2854   2.0000                                         
     3  2  1.50        -5.4423   0.0000                                         
   Description                                                                  
     l       E           TYP  RCUT    TYP  RCUT                                 
     0    -13.7508458     23  1.200                                             
     0     -8.2022199     23  1.200                                             
     1     -5.2854383     23  1.500                                             
     1     34.0145650     23  1.500                                             
     2     -5.4423304      7  1.500                                             
  local pseudopotential read in
  partial core-charges read in
  partial kinetic energy density read in
  atomic valenz-charges read in
  non local Contribution for L=           0  read in
    real space projection operators read in
  non local Contribution for L=           0  read in
    real space projection operators read in
  non local Contribution for L=           1  read in
    real space projection operators read in
  non local Contribution for L=           1  read in
    real space projection operators read in
    PAW grid and wavefunctions read in
 
   number of l-projection  operators is LMAX  =           4
   number of lm-projection operators is LMMAX =           8
 
  PAW_PBE H 15Jun2001                   :
 energy of atom  1       EATOM=  -12.4884
 kinetic energy error for atom=    0.0098 (will be added to EATOM!!)
  PAW_PBE C 08Apr2002                   :
 energy of atom  2       EATOM= -147.1560
 kinetic energy error for atom=    0.0288 (will be added to EATOM!!)
 
 
 POSCAR:  H  C                                   
  positions in cartesian coordinates
  No initial velocities read in
 exchange correlation table for  LEXCH =        8
   RHO(1)=    0.500       N(1)  =     2000
   RHO(2)=  100.500       N(2)  =     4000
 


--------------------------------------------------------------------------------------------------------


 ion  position               nearest neighbor table
   1  0.538  0.407  0.361-   5 1.08
   2  0.395  0.481  0.438-   5 1.07
   3  0.552  0.566  0.443-   5 1.08
   4  0.528  0.416  0.539-   5 1.08
   5  0.503  0.467  0.445-   2 1.07   1 1.08   3 1.08   4 1.08
 

IMPORTANT INFORMATION: All symmetrisations will be switched off!
NOSYMM: (Re-)initialisation of all symmetry stuff for point group C_1.

 
 

Automatic generation of k-mesh.
 generate k-points for:    2    2    2
Space group operators:
 irot       det(A)        alpha          n_x          n_y          n_z        tau_x        tau_y        tau_z
    1     1.000000     0.000000     1.000000     0.000000     0.000000     0.000000     0.000000     0.000000
 
 Subroutine IBZKPT returns following result:
 ===========================================
 
 Found      4 irreducible k-points:
 
 Following reciprocal coordinates:
            Coordinates               Weight
  0.250000  0.250000  0.250000      2.000000
 -0.250000  0.250000  0.250000      2.000000
  0.250000 -0.250000  0.250000      2.000000
 -0.250000 -0.250000  0.250000      2.000000
 
 Following cartesian coordinates:
            Coordinates               Weight
  0.025564  0.025157  0.024974      2.000000
 -0.025564  0.025781  0.025310      2.000000
  0.025564 -0.025781  0.025157      2.000000
 -0.025564 -0.025157  0.025493      2.000000
 


--------------------------------------------------------------------------------------------------------




 Dimension of arrays:
   k-points           NKPTS =      4   k-points in BZ     NKDIM =      4   number of bands    NBANDS=      8
   number of dos      NEDOS =    301   number of ions     NIONS =      5
   non local maximal  LDIM  =      4   non local SUM 2l+1 LMDIM =      8
   total plane-waves  NPLWV = 286720
   max r-space proj   IRMAX =      1   max aug-charges    IRDMAX=   3757
   dimension x,y,z NGX =    64 NGY =   64 NGZ =   70
   dimension x,y,z NGXF=   128 NGYF=  128 NGZF=  140
   support grid    NGXF=   128 NGYF=  128 NGZF=  140
   ions per type =               4   1
   NGX,Y,Z   is equivalent  to a cutoff of  10.88, 10.84, 11.75 a.u.
   NGXF,Y,Z  is equivalent  to a cutoff of  21.76, 21.68, 23.49 a.u.

 SYSTEM =  unknown system                          
 POSCAR =   H  C                                   

 Startparameter for this run:
   NWRITE =      2    write-flag & timer
   PREC   = a         normal or accurate (medium, high low for compatibility)
   ISTART =      0    job   : 0-new  1-cont  2-samecut
   ICHARG =      2    charge: 1-file 2-atom 10-const
   ISPIN  =      1    spin polarized calculation?
   LNONCOLLINEAR =      F non collinear calculations
   LSORBIT =      F    spin-orbit coupling
   INIWAV =      1    electr: 0-lowe 1-rand  2-diag
   LASPH  =      F    aspherical Exc in radial PAW
   METAGGA=      F    non-selfconsistent MetaGGA calc.

 Electronic Relaxation 1
   ENCUT  =  400.0 eV  29.40 Ry    5.42 a.u.  15.95 16.01 16.16*2*pi/ulx,y,z
   ENINI  =  400.0     initial cutoff
   ENAUG  =  644.9 eV  augmentation charge cutoff
   NELM   =    120;   NELMIN=  4; NELMDL= -5     # of ELM steps 
   EDIFF  = 0.1E-05   stopping-criterion for ELM
   LREAL  =      F    real-space projection
   NLSPLINE    = F    spline interpolate recip. space projectors
   LCOMPAT=      F    compatible to vasp.4.4
   GGA_COMPAT  = T    GGA compatible to vasp.4.4-vasp.4.6
   LMAXPAW     = -100 max onsite density
   LMAXMIX     =    2 max onsite mixed and CHGCAR
   VOSKOWN=      0    Vosko Wilk Nusair interpolation
   ROPT   =    0.00000   0.00000
 Ionic relaxation
   EDIFFG = 0.1E-04   stopping-criterion for IOM
   NSW    =     10    number of steps for IOM
   NBLOCK =      1;   KBLOCK =     10    inner block; outer block 
   IBRION =      0    ionic relax: 0-MD 1-quasi-New 2-CG
   NFREE  =      0    steps in history (QN), initial steepest desc. (CG)
   ISIF   =      2    stress and relaxation
   IWAVPR =     12    prediction:  0-non 1-charg 2-wave 3-comb
   ISYM   =      0    0-nonsym 1-usesym 2-fastsym
   LCORR  =      T    Harris-Foulkes like correction to forces

   POTIM  = 0.5000    time-step for ionic-motion
   TEIN   =    0.0    initial temperature
   TEBEG  =    0.0;   TEEND  =   0.0 temperature during run
   SMASS  =  -3.00    Nose mass-parameter (am)
   estimated Nose-frequenzy (Omega)   =  0.10E-29 period in steps =****** mass=  -0.219E-26a.u.
   SCALEE = 1.0000    scale energy and forces
   NPACO  =    256;   APACO  = 16.0  distance and # of slots for P.C.
   PSTRESS=    0.0 pullay stress

  Mass of Ions in am
   POMASS =   1.00 12.01
  Ionic Valenz
   ZVAL   =   1.00  4.00
  Atomic Wigner-Seitz radii
   RWIGS  =  -1.00 -1.00
  virtual crystal weights 
   VCA    =   1.00  1.00
   NELECT =       8.0000    total number of electrons
   NUPDOWN=      -1.0000    fix difference up-down

 DOS related values:
   EMIN   =  10.00;   EMAX   =-10.00  energy-range for DOS
   EFERMI =   0.00
   ISMEAR =     0;   SIGMA  =   0.20  broadening in eV -4-tet -1-fermi 0-gaus

 Electronic relaxation 2 (details)
   IALGO  =     68    algorithm
   LDIAG  =      T    sub-space diagonalisation (order eigenvalues)
   LSUBROT=      F    optimize rotation matrix (better conditioning)
   TURBO    =      0    0=normal 1=particle mesh
   IRESTART =      0    0=no restart 2=restart with 2 vectors
   NREBOOT  =      0    no. of reboots
   NMIN     =      0    reboot dimension
   EREF     =   0.00    reference energy to select bands
   IMIX   =      4    mixing-type and parameters
     AMIX     =   0.40;   BMIX     =  1.00
     AMIX_MAG =   1.60;   BMIX_MAG =  1.00
     AMIN     =   0.10
     WC   =   100.;   INIMIX=   1;  MIXPRE=   1;  MAXMIX= -45

 Intra band minimization:
   WEIMIN = 0.0010     energy-eigenvalue tresh-hold
   EBREAK =  0.31E-07  absolut break condition
   DEPER  =   0.30     relativ break condition  

   TIME   =   0.40     timestep for ELM

  volume/ion in A,a.u.               =     190.21      1283.61
  Fermi-wavevector in a.u.,A,eV,Ry     =   0.332942  0.629169  1.508212  0.110850
  Thomas-Fermi vector in A             =   1.230377
 
 Write flags
   LWAVE        =      F    write WAVECAR
   LDOWNSAMPLE  =      F    k-point downsampling of WAVECAR
   LCHARG       =      F    write CHGCAR
   LVTOT        =      F    write LOCPOT, total local potential
   LVHAR        =      F    write LOCPOT, Hartree potential only
   LELF         =      F    write electronic localiz. function (ELF)
   LORBIT       =      0    0 simple, 1 ext, 2 COOP (PROOUT), +10 PAW based schemes


 Dipole corrections
   LMONO  =      F    monopole corrections only (constant potential shift)
   LDIPOL =      F    correct potential (dipole corrections)
   IDIPOL =      0    1-x, 2-y, 3-z, 4-all directions 
   EPSILON=  1.0000000 bulk dielectric constant

 Exchange correlation treatment:
   GGA     =    --    GGA type
   LEXCH   =     8    internal setting for exchange type
   VOSKOWN=      0    Vosko Wilk Nusair interpolation
   LHFCALC =     F    Hartree Fock is set to
   LHFONE  =     F    Hartree Fock one center treatment
   AEXX    =    0.0000 exact exchange contribution

 Linear response parameters
   LEPSILON=     F    determine dielectric tensor
   LRPA    =     F    only Hartree local field effects (RPA)
   LNABLA  =     F    use nabla operator in PAW spheres
   LVEL    =     F    velocity operator in full k-point grid
   LINTERFAST=   F  fast interpolation
   KINTER  =     0    interpolate to denser k-point grid
   CSHIFT  =0.1000    complex shift for real part using Kramers Kronig
   OMEGAMAX=  -1.0    maximum frequency
   DEG_THRESHOLD= 0.2000000E-02 threshold for treating states as degnerate
   RTIME   =   -0.100 relaxation time in fs
  (WPLASMAI=    0.000 imaginary part of plasma frequency in eV, 0.658/RTIME)
   DFIELD  = 0.0000000 0.0000000 0.0000000 field for delta impulse in time
 
 Orbital magnetization related:
   ORBITALMAG=     F  switch on orbital magnetization
   LCHIMAG   =     F  perturbation theory with respect to B field
   DQ        =  0.001000  dq finite difference perturbation B field
   LLRAUG    =     F  two centre corrections for induced B field



--------------------------------------------------------------------------------------------------------


 molecular dynamics for ions
   using a microcanonical ensemble
 charge density and potential will be updated during run
 non-spin polarized calculation
 RMM-DIIS sequential band-by-band and
  variant of blocked Davidson during initial phase
 perform sub-space diagonalisation
    before iterative eigenvector-optimisation
 modified Broyden-mixing scheme, WC =      100.0
 initial mixing is a Kerker type mixing with AMIX =  0.4000 and BMIX =      1.0000
 Hartree-type preconditioning will be used
 using additional bands            4
 reciprocal scheme for non local part
 use partial core corrections
 calculate Harris-corrections to forces 
   (improved forces if not selfconsistent)
 use gradient corrections 
 use of overlap-Matrix (Vanderbilt PP)
 Gauss-broadening in eV      SIGMA  =   0.20


--------------------------------------------------------------------------------------------------------


  energy-cutoff  :      400.00
  volume of cell :      951.06
      direct lattice vectors                 reciprocal lattice vectors
     9.779468526  0.000000000  0.000000000     0.102255046 -0.001248322 -0.000671906
     0.119833175  9.816014705  0.000000000     0.000000000  0.101874338 -0.000365497
     0.065534029  0.035544900  9.907354660     0.000000000  0.000000000  0.100935117

  length of vectors
     9.779468526  9.816746135  9.907635163     0.102264872  0.101874994  0.100935117


 
 k-points in units of 2pi/SCALE and weight: read from INCAR                         
   0.02556376  0.02515650  0.02497443       0.250
  -0.02556376  0.02578066  0.02531038       0.250
   0.02556376 -0.02578066  0.02515718       0.250
  -0.02556376 -0.02515650  0.02549313       0.250
 
 k-points in reciprocal lattice and weights: read from INCAR                         
   0.25000000  0.25000000  0.25000000       0.250
  -0.25000000  0.25000000  0.25000000       0.250
   0.25000000 -0.25000000  0.25000000       0.250
  -0.25000000 -0.25000000  0.25000000       0.250
 
 position of ions in fractional coordinates (direct lattice) 
   0.53832332  0.40653629  0.36084578
   0.39455500  0.48071377  0.43826961
   0.55172797  0.56568474  0.44330930
   0.52820731  0.41640596  0.53919222
   0.50336224  0.46725905  0.44508868
 
 position of ions in cartesian coordinates  (Angst):
   5.33688021  4.00339240  3.57502714
   3.94486522  4.73427164  4.34209242
   5.49244595  5.56852714  4.39202241
   5.25082143  4.10661254  5.34196855
   5.00777679  4.60244237  4.40965140
 


--------------------------------------------------------------------------------------------------------


 k-point  1 :   0.2500 0.2500 0.2500  plane waves:   17291
 k-point  2 :  -0.2500 0.2500 0.2500  plane waves:   17275
 k-point  3 :   0.2500-0.2500 0.2500  plane waves:   17284
 k-point  4 :  -0.2500-0.2500 0.2500  plane waves:   17284

 maximum and minimum number of plane-waves per node :      4342     4299

 maximum number of plane-waves:     17291
 maximum index in each direction: 
   IXMAX=   16   IYMAX=   16   IZMAX=   15
   IXMIN=  -16   IYMIN=  -16   IZMIN=  -16


 parallel 3D FFT for wavefunctions:
    minimum data exchange during FFTs selected (reduces bandwidth)
 parallel 3D FFT for charge:
    minimum data exchange during FFTs selected (reduces bandwidth)


 total amount of memory used by VASP MPI-rank0    51111. kBytes
=======================================================================

   base      :      30000. kBytes
   nonl-proj :       2559. kBytes
   fftplans  :       6998. kBytes
   grid      :      10993. kBytes
   one-center:          6. kBytes
   wavefun   :        555. kBytes
 
     INWAV:  cpu time    0.0000: real time    0.0000
 Broyden mixing: mesh for mixing (old mesh)
   NGX = 31   NGY = 33   NGZ = 33
  (NGX  =128   NGY  =128   NGZ  =140)
  gives a total of  33759 points

 initial charge density was supplied:
 charge density of overlapping atoms calculated
 number of electron       8.0000000 magnetization 
 keeping initial charge density in first step


--------------------------------------------------------------------------------------------------------


 Maximum index for augmentation-charges          282 (set IRDMAX)


--------------------------------------------------------------------------------------------------------


 First call to EWALD:  gamma=   0.180
 Maximum number of real-space cells 3x 3x 3
 Maximum number of reciprocal cells 3x 3x 3

    FEWALD:  cpu time    0.0018: real time    0.0018


--------------------------------------- Iteration      1(   1)  ---------------------------------------


    POTLOK:  cpu time    0.1246: real time    0.1266
    SETDIJ:  cpu time    0.0023: real time    0.0023
     EDDAV:  cpu time    0.1702: real time    0.1708
       DOS:  cpu time    0.0002: real time    0.0002
    --------------------------------------------
      LOOP:  cpu time    0.2973: real time    0.2999

 eigenvalue-minimisations  :    96
 total energy-change (2. order) : 0.1373285E+02  (-0.2067959E+03)
 number of electron       8.0000000 magnetization 
 augmentation part        8.0000000 magnetization 

 Free energy of the ion-electron system (eV)
  ---------------------------------------------------
  alpha Z        PSCENC =         0.25471648
  Ewald energy   TEWEN  =       130.77849005
  -Hartree energ DENC   =      -244.06645873
  -exchange      EXHF   =         0.00000000
  -V(xc)+E(xc)   XCENC  =        22.10959501
  PAW double counting   =       117.05815612     -117.66307307
  entropy T*S    EENTRO =        -0.00000000
  eigenvalues    EBANDS =       -91.78032648
  atomic energy  EATOM  =       197.04175453
  Solvation  Ediel_sol  =         0.00000000
  ---------------------------------------------------
  free energy    TOTEN  =        13.73285392 eV

  energy without entropy =       13.73285392  energy(sigma->0) =       13.73285392


--------------------------------------------------------------------------------------------------------




--------------------------------------- Iteration      1(   2)  ---------------------------------------


     EDDAV:  cpu time    0.1370: real time    0.1371
       DOS:  cpu time    0.0002: real time    0.0002
    --------------------------------------------
      LOOP:  cpu time    0.1372: real time    0.1373

 eigenvalue-minimisations  :    72
 total energy-change (2. order) :-0.3783005E+02  (-0.3783005E+02)
 number of electron       8.0000000 magnetization 
 augmentation part        8.0000000 magnetization 

 Free energy of the ion-electron system (eV)
  ---------------------------------------------------
  alpha Z        PSCENC =         0.25471648
  Ewald energy   TEWEN  =       130.77849005
  -Hartree energ DENC   =      -244.06645873
  -exchange      EXHF   =         0.00000000
  -V(xc)+E(xc)   XCENC  =        22.10959501
  PAW double counting   =       117.05815612     -117.66307307
  entropy T*S    EENTRO =        -0.00000000
  eigenvalues    EBANDS =      -129.61037503
  atomic energy  EATOM  =       197.04175453
  Solvation  Ediel_sol  =         0.00000000
  ---------------------------------------------------
  free energy    TOTEN  =       -24.09719463 eV

  energy without entropy =      -24.09719463  energy(sigma->0) =      -24.09719463


--------------------------------------------------------------------------------------------------------




--------------------------------------- Iteration      1(   3)  ---------------------------------------


     EDDAV:  cpu time    0.1256: real time    0.1259
       DOS:  cpu time    0.0002: real time    0.0002
    --------------------------------------------
      LOOP:  cpu time    0.1257: real time    0.1261

 eigenvalue-minimisations  :    64
 total energy-change (2. order) :-0.3568829E+01  (-0.3568829E+01)
 number of electron       8.0000000 magnetization 
 augmentation part        8.0000000 magnetization 

 Free energy of the ion-electron system (eV)
  ---------------------------------------------------
  alpha Z        PSCENC =         0.25471648
  Ewald energy   TEWEN  =       130.77849005
  -Hartree energ DENC   =      -244.06645873
  -exchange      EXHF   =         0.00000000
  -V(xc)+E(xc)   XCENC  =        22.10959501
  PAW double counting   =       117.05815612     -117.66307307
  entropy T*S    EENTRO =        -0.00000000
  eigenvalues    EBANDS =      -133.17920396
  atomic energy  EATOM  =       197.04175453
  Solvation  Ediel_sol  =         0.00000000
  ---------------------------------------------------
  free energy    TOTEN  =       -27.66602356 eV

  energy without entropy =      -27.66602356  energy(sigma->0) =      -27.66602356


--------------------------------------------------------------------------------------------------------




--------------------------------------- Iteration      1(   4)  ---------------------------------------


     EDDAV:  cpu time    0.2117: real time    0.2118
       DOS:  cpu time    0.0004: real time    0.0004
    --------------------------------------------
      LOOP:  cpu time    0.2120: real time    0.2122

 eigenvalue-minimisations  :   128
 total energy-change (2. order) :-0.1291179E+00  (-0.1291179E+00)
 number of electron       8.0000000 magnetization 
 augmentation part        8.0000000 magnetization 

 Free energy of the ion-electron system (eV)
  ---------------------------------------------------
  alpha Z        PSCENC =         0.25471648
  Ewald energy   TEWEN  =       130.77849005
  -Hartree energ DENC   =      -244.06645873
  -exchange      EXHF   =         0.00000000
  -V(xc)+E(xc)   XCENC  =        22.10959501
  PAW double counting   =       117.05815612     -117.66307307
  entropy T*S    EENTRO =        -0.00000000
  eigenvalues    EBANDS =      -133.30832182
  atomic energy  EATOM  =       197.04175453
  Solvation  Ediel_sol  =         0.00000000
  ---------------------------------------------------
  free energy    TOTEN  =       -27.79514142 eV

  energy without entropy =      -27.79514142  energy(sigma->0) =      -27.79514142


--------------------------------------------------------------------------------------------------------




--------------------------------------- Iteration      1(   5)  ---------------------------------------


     EDDAV:  cpu time    0.1681: real time    0.1688
       DOS:  cpu time    0.0002: real time    0.0002
    CHARGE:  cpu time    0.0176: real time    0.0176
    MIXING:  cpu time    0.0038: real time    0.0038
    --------------------------------------------
      LOOP:  cpu time    0.1898: real time    0.1905

 eigenvalue-minimisations  :    96
 total energy-change (2. order) :-0.3323664E-04  (-0.3323678E-04)
 number of electron       8.0000001 magnetization 
 augmentation part        0.2319934 magnetization 

 Broyden mixing:
  rms(total) = 0.90507E+00    rms(broyden)= 0.90483E+00
  rms(prec ) = 0.12919E+01
  weight for this iteration     100.00

 Free energy of the ion-electron system (eV)
  ---------------------------------------------------
  alpha Z        PSCENC =         0.25471648
  Ewald energy   TEWEN  =       130.77849005
  -Hartree energ DENC   =      -244.06645873
  -exchange      EXHF   =         0.00000000
  -V(xc)+E(xc)   XCENC  =        22.10959501
  PAW double counting   =       117.05815612     -117.66307307
  entropy T*S    EENTRO =        -0.00000000
  eigenvalues    EBANDS =      -133.30835506
  atomic energy  EATOM  =       197.04175453
  Solvation  Ediel_sol  =         0.00000000
  ---------------------------------------------------
  free energy    TOTEN  =       -27.79517466 eV

  energy without entropy =      -27.79517466  energy(sigma->0) =      -27.79517466


--------------------------------------------------------------------------------------------------------




--------------------------------------- Iteration      1(   6)  ---------------------------------------


    POTLOK:  cpu time    0.1191: real time    0.1194
    SETDIJ:  cpu time    0.0022: real time    0.0022
    EDDIAG:  cpu time    0.0351: real time    0.0352
  RMM-DIIS:  cpu time    0.1334: real time    0.1335
    ORTHCH:  cpu time    0.0015: real time    0.0015
       DOS:  cpu time    0.0002: real time    0.0002
    CHARGE:  cpu time    0.0166: real time    0.0166
    MIXING:  cpu time    0.0041: real time    0.0041
    --------------------------------------------
      LOOP:  cpu time    0.3121: real time    0.3126

 eigenvalue-minimisations  :    64
 total energy-change (2. order) : 0.3109611E+01  (-0.5841962E+00)
 number of electron       8.0000001 magnetization 
 augmentation part        0.2044475 magnetization 

 Broyden mixing:
  rms(total) = 0.44380E+00    rms(broyden)= 0.44372E+00
  rms(prec ) = 0.58138E+00
  weight for this iteration     100.00

 eigenvalues of (default mixing * dielectric matrix)
  average eigenvalue GAMMA=   1.3187
  1.3187

 Free energy of the ion-electron system (eV)
  ---------------------------------------------------
  alpha Z        PSCENC =         0.25471648
  Ewald energy   TEWEN  =       130.77849005
  -Hartree energ DENC   =      -264.51897400
  -exchange      EXHF   =         0.00000000
  -V(xc)+E(xc)   XCENC  =        23.35090128
  PAW double counting   =       244.58180086     -245.37172345
  entropy T*S    EENTRO =        -0.00000000
  eigenvalues    EBANDS =      -110.80252938
  atomic energy  EATOM  =       197.04175453
  Solvation  Ediel_sol  =         0.00000000
  ---------------------------------------------------
  free energy    TOTEN  =       -24.68556362 eV

  energy without entropy =      -24.68556362  energy(sigma->0) =      -24.68556362


--------------------------------------------------------------------------------------------------------




--------------------------------------- Iteration      1(   7)  ---------------------------------------


    POTLOK:  cpu time    0.1195: real time    0.1196
    SETDIJ:  cpu time    0.0021: real time    0.0021
    EDDIAG:  cpu time    0.0326: real time    0.0326
  RMM-DIIS:  cpu time    0.1313: real time    0.1316
    ORTHCH:  cpu time    0.0016: real time    0.0016
       DOS:  cpu time    0.0002: real time    0.0002
    CHARGE:  cpu time    0.0153: real time    0.0153
    MIXING:  cpu time    0.0040: real time    0.0040
    --------------------------------------------
      LOOP:  cpu time    0.3067: real time    0.3070

 eigenvalue-minimisations  :    64
 total energy-change (2. order) : 0.5328593E+00  (-0.1410012E+00)
 number of electron       8.0000001 magnetization 
 augmentation part        0.1931569 magnetization 

 Broyden mixing:
  rms(total) = 0.23395E+00    rms(broyden)= 0.23389E+00
  rms(prec ) = 0.28326E+00
  weight for this iteration     100.00

 eigenvalues of (default mixing * dielectric matrix)
  average eigenvalue GAMMA=   1.8483
  1.4801  2.2164

 Free energy of the ion-electron system (eV)
  ---------------------------------------------------
  alpha Z        PSCENC =         0.25471648
  Ewald energy   TEWEN  =       130.77849005
  -Hartree energ DENC   =      -276.92423853
  -exchange      EXHF   =         0.00000000
  -V(xc)+E(xc)   XCENC  =        24.25542729
  PAW double counting   =       382.48563811     -383.32081102
  entropy T*S    EENTRO =        -0.00000000
  eigenvalues    EBANDS =       -98.72368124
  atomic energy  EATOM  =       197.04175453
  Solvation  Ediel_sol  =         0.00000000
  ---------------------------------------------------
  free energy    TOTEN  =       -24.15270432 eV

  energy without entropy =      -24.15270432  energy(sigma->0) =      -24.15270432


--------------------------------------------------------------------------------------------------------




--------------------------------------- Iteration      1(   8)  ---------------------------------------


    POTLOK:  cpu time    0.1190: real time    0.1191
    SETDIJ:  cpu time    0.0019: real time    0.0019
    EDDIAG:  cpu time    0.0316: real time    0.0316
  RMM-DIIS:  cpu time    0.1326: real time    0.1332
    ORTHCH:  cpu time    0.0015: real time    0.0015
       DOS:  cpu time    0.0002: real time    0.0002
    CHARGE:  cpu time    0.0152: real time    0.0152
    MIXING:  cpu time    0.0043: real time    0.0043
    --------------------------------------------
      LOOP:  cpu time    0.3062: real time    0.3069

 eigenvalue-minimisations  :    64
 total energy-change (2. order) : 0.1491411E+00  (-0.1619294E-01)
 number of electron       8.0000001 magnetization 
 augmentation part        0.1917379 magnetization 

 Broyden mixing:
  rms(total) = 0.22311E-01    rms(broyden)= 0.22285E-01
  rms(prec ) = 0.53928E-01
  weight for this iteration     100.00

 eigenvalues of (default mixing * dielectric matrix)
  average eigenvalue GAMMA=   1.5600
  2.2489  1.0007  1.4304

 Free energy of the ion-electron system (eV)
  ---------------------------------------------------
  alpha Z        PSCENC =         0.25471648
  Ewald energy   TEWEN  =       130.77849005
  -Hartree energ DENC   =      -282.33680965
  -exchange      EXHF   =         0.00000000
  -V(xc)+E(xc)   XCENC  =        24.79248672
  PAW double counting   =       499.62097729     -500.42309325
  entropy T*S    EENTRO =        -0.00000000
  eigenvalues    EBANDS =       -93.73208544
  atomic energy  EATOM  =       197.04175453
  Solvation  Ediel_sol  =         0.00000000
  ---------------------------------------------------
  free energy    TOTEN  =       -24.00356327 eV

  energy without entropy =      -24.00356327  energy(sigma->0) =      -24.00356327


--------------------------------------------------------------------------------------------------------




--------------------------------------- Iteration      1(   9)  ---------------------------------------


    POTLOK:  cpu time    0.1194: real time    0.1198
    SETDIJ:  cpu time    0.0021: real time    0.0021
    EDDIAG:  cpu time    0.0317: real time    0.0317
  RMM-DIIS:  cpu time    0.1338: real time    0.1339
    ORTHCH:  cpu time    0.0015: real time    0.0015
       DOS:  cpu time    0.0002: real time    0.0002
    CHARGE:  cpu time    0.0151: real time    0.0152
    MIXING:  cpu time    0.0042: real time    0.0042
    --------------------------------------------
      LOOP:  cpu time    0.3081: real time    0.3086

 eigenvalue-minimisations  :    64
 total energy-change (2. order) : 0.5773583E-02  (-0.1152300E-02)
 number of electron       8.0000001 magnetization 
 augmentation part        0.1911373 magnetization 

 Broyden mixing:
  rms(total) = 0.20054E-01    rms(broyden)= 0.20050E-01
  rms(prec ) = 0.41563E-01
  weight for this iteration     100.00

 eigenvalues of (default mixing * dielectric matrix)
  average eigenvalue GAMMA=   2.1203
  3.2111  2.8719  1.0011  1.3972

 Free energy of the ion-electron system (eV)
  ---------------------------------------------------
  alpha Z        PSCENC =         0.25471648
  Ewald energy   TEWEN  =       130.77849005
  -Hartree energ DENC   =      -283.63751465
  -exchange      EXHF   =         0.00000000
  -V(xc)+E(xc)   XCENC  =        24.86582200
  PAW double counting   =       504.14306621     -504.94773752
  entropy T*S    EENTRO =        -0.00000000
  eigenvalues    EBANDS =       -92.49638678
  atomic energy  EATOM  =       197.04175453
  Solvation  Ediel_sol  =         0.00000000
  ---------------------------------------------------
  free energy    TOTEN  =       -23.99778968 eV

  energy without entropy =      -23.99778968  energy(sigma->0) =      -23.99778968


--------------------------------------------------------------------------------------------------------




--------------------------------------- Iteration      1(  10)  ---------------------------------------


    POTLOK:  cpu time    0.1151: real time    0.1153
    SETDIJ:  cpu time    0.0020: real time    0.0020
    EDDIAG:  cpu time    0.0313: real time    0.0313
  RMM-DIIS:  cpu time    0.1346: real time    0.1346
    ORTHCH:  cpu time    0.0015: real time    0.0015
       DOS:  cpu time    0.0002: real time    0.0002
    CHARGE:  cpu time    0.0150: real time    0.0153
    MIXING:  cpu time    0.0046: real time    0.0046
    --------------------------------------------
      LOOP:  cpu time    0.3044: real time    0.3048

 eigenvalue-minimisations  :    64
 total energy-change (2. order) : 0.5690293E-02  (-0.2407486E-02)
 number of electron       8.0000001 magnetization 
 augmentation part        0.1900783 magnetization 

 Broyden mixing:
  rms(total) = 0.28901E-01    rms(broyden)= 0.28899E-01
  rms(prec ) = 0.36540E-01
  weight for this iteration     100.00

 eigenvalues of (default mixing * dielectric matrix)
  average eigenvalue GAMMA=   1.7774
  3.0818  2.4768  1.1838  1.1838  0.9606

 Free energy of the ion-electron system (eV)
  ---------------------------------------------------
  alpha Z        PSCENC =         0.25471648
  Ewald energy   TEWEN  =       130.77849005
  -Hartree energ DENC   =      -285.85758589
  -exchange      EXHF   =         0.00000000
  -V(xc)+E(xc)   XCENC  =        24.93453686
  PAW double counting   =       486.67907631     -487.48751999
  entropy T*S    EENTRO =        -0.00000000
  eigenvalues    EBANDS =       -90.33556775
  atomic energy  EATOM  =       197.04175453
  Solvation  Ediel_sol  =         0.00000000
  ---------------------------------------------------
  free energy    TOTEN  =       -23.99209939 eV

  energy without entropy =      -23.99209939  energy(sigma->0) =      -23.99209939


--------------------------------------------------------------------------------------------------------




--------------------------------------- Iteration      1(  11)  ---------------------------------------


    POTLOK:  cpu time    0.1138: real time    0.1139
    SETDIJ:  cpu time    0.0027: real time    0.0027
    EDDIAG:  cpu time    0.0315: real time    0.0315
  RMM-DIIS:  cpu time    0.1325: real time    0.1325
    ORTHCH:  cpu time    0.0018: real time    0.0018
       DOS:  cpu time    0.0002: real time    0.0002
    CHARGE:  cpu time    0.0150: real time    0.0151
    MIXING:  cpu time    0.0048: real time    0.0048
    --------------------------------------------
      LOOP:  cpu time    0.3022: real time    0.3024

 eigenvalue-minimisations  :    64
 total energy-change (2. order) :-0.2988947E-03  (-0.5920124E-03)
 number of electron       8.0000001 magnetization 
 augmentation part        0.1903728 magnetization 

 Broyden mixing:
  rms(total) = 0.55963E-02    rms(broyden)= 0.55933E-02
  rms(prec ) = 0.12444E-01
  weight for this iteration     100.00

 eigenvalues of (default mixing * dielectric matrix)
  average eigenvalue GAMMA=   2.2929
  4.8455  3.1546  2.4365  1.3261  0.9973  0.9973

 Free energy of the ion-electron system (eV)
  ---------------------------------------------------
  alpha Z        PSCENC =         0.25471648
  Ewald energy   TEWEN  =       130.77849005
  -Hartree energ DENC   =      -285.76398520
  -exchange      EXHF   =         0.00000000
  -V(xc)+E(xc)   XCENC  =        24.94828842
  PAW double counting   =       496.05014118     -496.85173646
  entropy T*S    EENTRO =        -0.00000000
  eigenvalues    EBANDS =       -90.45006728
  atomic energy  EATOM  =       197.04175453
  Solvation  Ediel_sol  =         0.00000000
  ---------------------------------------------------
  free energy    TOTEN  =       -23.99239829 eV

  energy without entropy =      -23.99239829  energy(sigma->0) =      -23.99239829


--------------------------------------------------------------------------------------------------------




--------------------------------------- Iteration      1(  12)  ---------------------------------------


    POTLOK:  cpu time    0.1065: real time    0.1077
    SETDIJ:  cpu time    0.0019: real time    0.0019
    EDDIAG:  cpu time    0.0317: real time    0.0317
  RMM-DIIS:  cpu time    0.1344: real time    0.1344
    ORTHCH:  cpu time    0.0015: real time    0.0015
       DOS:  cpu time    0.0002: real time    0.0002
    CHARGE:  cpu time    0.0149: real time    0.0149
    MIXING:  cpu time    0.0050: real time    0.0050
    --------------------------------------------
      LOOP:  cpu time    0.2960: real time    0.2972

 eigenvalue-minimisations  :    64
 total energy-change (2. order) :-0.1040405E-01  (-0.5461655E-03)
 number of electron       8.0000001 magnetization 
 augmentation part        0.1906978 magnetization 

 Broyden mixing:
  rms(total) = 0.14060E-01    rms(broyden)= 0.14058E-01
  rms(prec ) = 0.18273E-01
  weight for this iteration     100.00

 eigenvalues of (default mixing * dielectric matrix)
  average eigenvalue GAMMA=   2.0263
  4.8520  2.9528  2.4491  1.2845  0.9851  0.9851  0.6752

 Free energy of the ion-electron system (eV)
  ---------------------------------------------------
  alpha Z        PSCENC =         0.25471648
  Ewald energy   TEWEN  =       130.77849005
  -Hartree energ DENC   =      -285.91386177
  -exchange      EXHF   =         0.00000000
  -V(xc)+E(xc)   XCENC  =        24.94037861
  PAW double counting   =       494.16156190     -494.96058498
  entropy T*S    EENTRO =        -0.00000000
  eigenvalues    EBANDS =       -90.30525715
  atomic energy  EATOM  =       197.04175453
  Solvation  Ediel_sol  =         0.00000000
  ---------------------------------------------------
  free energy    TOTEN  =       -24.00280234 eV

  energy without entropy =      -24.00280234  energy(sigma->0) =      -24.00280234


--------------------------------------------------------------------------------------------------------




--------------------------------------- Iteration      1(  13)  ---------------------------------------


    POTLOK:  cpu time    0.1066: real time    0.1067
    SETDIJ:  cpu time    0.0022: real time    0.0022
    EDDIAG:  cpu time    0.0358: real time    0.0358
  RMM-DIIS:  cpu time    0.1293: real time    0.1293
    ORTHCH:  cpu time    0.0015: real time    0.0015
       DOS:  cpu time    0.0002: real time    0.0002
    CHARGE:  cpu time    0.0149: real time    0.0149
    MIXING:  cpu time    0.0052: real time    0.0052
    --------------------------------------------
      LOOP:  cpu time    0.2957: real time    0.2958

 eigenvalue-minimisations  :    64
 total energy-change (2. order) :-0.2092685E-03  (-0.7334672E-04)
 number of electron       8.0000001 magnetization 
 augmentation part        0.1904961 magnetization 

 Broyden mixing:
  rms(total) = 0.73921E-02    rms(broyden)= 0.73921E-02
  rms(prec ) = 0.95409E-02
  weight for this iteration     100.00

 eigenvalues of (default mixing * dielectric matrix)
  average eigenvalue GAMMA=   2.4013
  6.0461  3.9489  2.5848  2.3165  1.2239  1.2239  1.0023  0.8637

 Free energy of the ion-electron system (eV)
  ---------------------------------------------------
  alpha Z        PSCENC =         0.25471648
  Ewald energy   TEWEN  =       130.77849005
  -Hartree energ DENC   =      -286.10362524
  -exchange      EXHF   =         0.00000000
  -V(xc)+E(xc)   XCENC  =        24.94654488
  PAW double counting   =       494.02546403     -494.82684187
  entropy T*S    EENTRO =        -0.00000000
  eigenvalues    EBANDS =       -90.11951446
  atomic energy  EATOM  =       197.04175453
  Solvation  Ediel_sol  =         0.00000000
  ---------------------------------------------------
  free energy    TOTEN  =       -24.00301161 eV

  energy without entropy =      -24.00301161  energy(sigma->0) =      -24.00301161


--------------------------------------------------------------------------------------------------------




--------------------------------------- Iteration      1(  14)  ---------------------------------------


    POTLOK:  cpu time    0.1050: real time    0.1055
    SETDIJ:  cpu time    0.0021: real time    0.0021
    EDDIAG:  cpu time    0.0313: real time    0.0313
  RMM-DIIS:  cpu time    0.1298: real time    0.1298
    ORTHCH:  cpu time    0.0014: real time    0.0014
       DOS:  cpu time    0.0002: real time    0.0002
    CHARGE:  cpu time    0.0149: real time    0.0149
    MIXING:  cpu time    0.0055: real time    0.0055
    --------------------------------------------
      LOOP:  cpu time    0.2902: real time    0.2907

 eigenvalue-minimisations  :    64
 total energy-change (2. order) :-0.2799868E-02  (-0.2868928E-03)
 number of electron       8.0000001 magnetization 
 augmentation part        0.1902038 magnetization 

 Broyden mixing:
  rms(total) = 0.57835E-02    rms(broyden)= 0.57812E-02
  rms(prec ) = 0.75674E-02
  weight for this iteration     100.00

 eigenvalues of (default mixing * dielectric matrix)
  average eigenvalue GAMMA=   2.3168
  6.5160  4.2091  2.4602  2.4602  1.1818  1.1818  1.0084  0.9170  0.9170

 Free energy of the ion-electron system (eV)
  ---------------------------------------------------
  alpha Z        PSCENC =         0.25471648
  Ewald energy   TEWEN  =       130.77849005
  -Hartree energ DENC   =      -286.20732613
  -exchange      EXHF   =         0.00000000
  -V(xc)+E(xc)   XCENC  =        24.94037243
  PAW double counting   =       492.74348661     -493.54780198
  entropy T*S    EENTRO =        -0.00000000
  eigenvalues    EBANDS =       -90.00950346
  atomic energy  EATOM  =       197.04175453
  Solvation  Ediel_sol  =         0.00000000
  ---------------------------------------------------
  free energy    TOTEN  =       -24.00581148 eV

  energy without entropy =      -24.00581148  energy(sigma->0) =      -24.00581148


--------------------------------------------------------------------------------------------------------




--------------------------------------- Iteration      1(  15)  ---------------------------------------


    POTLOK:  cpu time    0.1049: real time    0.1050
    SETDIJ:  cpu time    0.0021: real time    0.0022
    EDDIAG:  cpu time    0.0313: real time    0.0316
  RMM-DIIS:  cpu time    0.1324: real time    0.1328
    ORTHCH:  cpu time    0.0016: real time    0.0016
       DOS:  cpu time    0.0002: real time    0.0002
    CHARGE:  cpu time    0.0147: real time    0.0147
    MIXING:  cpu time    0.0056: real time    0.0056
    --------------------------------------------
      LOOP:  cpu time    0.2929: real time    0.2939

 eigenvalue-minimisations  :    64
 total energy-change (2. order) :-0.1409408E-03  (-0.2712215E-04)
 number of electron       8.0000001 magnetization 
 augmentation part        0.1902461 magnetization 

 Broyden mixing:
  rms(total) = 0.18769E-02    rms(broyden)= 0.18768E-02
  rms(prec ) = 0.23754E-02
  weight for this iteration     100.00

 eigenvalues of (default mixing * dielectric matrix)
  average eigenvalue GAMMA=   2.5751
  7.4553  5.0212  3.2310  2.4936  2.0649  1.3080  1.3080  0.9908  0.9908  0.8874

 Free energy of the ion-electron system (eV)
  ---------------------------------------------------
  alpha Z        PSCENC =         0.25471648
  Ewald energy   TEWEN  =       130.77849005
  -Hartree energ DENC   =      -286.07992912
  -exchange      EXHF   =         0.00000000
  -V(xc)+E(xc)   XCENC  =        24.93456866
  PAW double counting   =       492.83872838     -493.64146499
  entropy T*S    EENTRO =        -0.00000000
  eigenvalues    EBANDS =       -90.13281641
  atomic energy  EATOM  =       197.04175453
  Solvation  Ediel_sol  =         0.00000000
  ---------------------------------------------------
  free energy    TOTEN  =       -24.00595242 eV

  energy without entropy =      -24.00595242  energy(sigma->0) =      -24.00595242


--------------------------------------------------------------------------------------------------------




--------------------------------------- Iteration      1(  16)  ---------------------------------------


    POTLOK:  cpu time    0.1123: real time    0.1125
    SETDIJ:  cpu time    0.0020: real time    0.0020
    EDDIAG:  cpu time    0.0311: real time    0.0311
  RMM-DIIS:  cpu time    0.1303: real time    0.1304
    ORTHCH:  cpu time    0.0015: real time    0.0015
       DOS:  cpu time    0.0002: real time    0.0002
    CHARGE:  cpu time    0.0149: real time    0.0149
    MIXING:  cpu time    0.0059: real time    0.0059
    --------------------------------------------
      LOOP:  cpu time    0.2982: real time    0.2984

 eigenvalue-minimisations  :    64
 total energy-change (2. order) :-0.2176277E-03  (-0.2636390E-04)
 number of electron       8.0000001 magnetization 
 augmentation part        0.1903611 magnetization 

 Broyden mixing:
  rms(total) = 0.19894E-02    rms(broyden)= 0.19886E-02
  rms(prec ) = 0.26609E-02
  weight for this iteration     100.00

 eigenvalues of (default mixing * dielectric matrix)
  average eigenvalue GAMMA=   2.5243
  7.7904  4.7732  3.7731  2.4144  2.4144  1.2082  1.2082  0.8876  0.9839  1.1571
  1.1571

 Free energy of the ion-electron system (eV)
  ---------------------------------------------------
  alpha Z        PSCENC =         0.25471648
  Ewald energy   TEWEN  =       130.77849005
  -Hartree energ DENC   =      -286.05543604
  -exchange      EXHF   =         0.00000000
  -V(xc)+E(xc)   XCENC  =        24.93492737
  PAW double counting   =       493.09574037     -493.89758785
  entropy T*S    EENTRO =        -0.00000000
  eigenvalues    EBANDS =       -90.15877495
  atomic energy  EATOM  =       197.04175453
  Solvation  Ediel_sol  =         0.00000000
  ---------------------------------------------------
  free energy    TOTEN  =       -24.00617004 eV

  energy without entropy =      -24.00617004  energy(sigma->0) =      -24.00617004


--------------------------------------------------------------------------------------------------------




--------------------------------------- Iteration      1(  17)  ---------------------------------------


    POTLOK:  cpu time    0.1088: real time    0.1089
    SETDIJ:  cpu time    0.0024: real time    0.0024
    EDDIAG:  cpu time    0.0312: real time    0.0312
  RMM-DIIS:  cpu time    0.1330: real time    0.1332
    ORTHCH:  cpu time    0.0014: real time    0.0014
       DOS:  cpu time    0.0002: real time    0.0002
    CHARGE:  cpu time    0.0151: real time    0.0151
    MIXING:  cpu time    0.0062: real time    0.0062
    --------------------------------------------
      LOOP:  cpu time    0.2984: real time    0.2988

 eigenvalue-minimisations  :    64
 total energy-change (2. order) :-0.1902079E-05  (-0.2789886E-05)
 number of electron       8.0000001 magnetization 
 augmentation part        0.1903261 magnetization 

 Broyden mixing:
  rms(total) = 0.87070E-03    rms(broyden)= 0.87069E-03
  rms(prec ) = 0.11050E-02
  weight for this iteration     100.00

 eigenvalues of (default mixing * dielectric matrix)
  average eigenvalue GAMMA=   2.5553
  8.2233  5.0031  3.9992  2.7054  2.4230  1.7908  1.3515  1.3515  0.9827  0.9827
  0.9883  0.8619

 Free energy of the ion-electron system (eV)
  ---------------------------------------------------
  alpha Z        PSCENC =         0.25471648
  Ewald energy   TEWEN  =       130.77849005
  -Hartree energ DENC   =      -286.09939174
  -exchange      EXHF   =         0.00000000
  -V(xc)+E(xc)   XCENC  =        24.93703517
  PAW double counting   =       493.11636950     -493.91865301
  entropy T*S    EENTRO =        -0.00000000
  eigenvalues    EBANDS =       -90.11649293
  atomic energy  EATOM  =       197.04175453
  Solvation  Ediel_sol  =         0.00000000
  ---------------------------------------------------
  free energy    TOTEN  =       -24.00617195 eV

  energy without entropy =      -24.00617195  energy(sigma->0) =      -24.00617195


--------------------------------------------------------------------------------------------------------




--------------------------------------- Iteration      1(  18)  ---------------------------------------


    POTLOK:  cpu time    0.1112: real time    0.1114
    SETDIJ:  cpu time    0.0021: real time    0.0021
    EDDIAG:  cpu time    0.0311: real time    0.0311
  RMM-DIIS:  cpu time    0.1293: real time    0.1297
    ORTHCH:  cpu time    0.0014: real time    0.0014
       DOS:  cpu time    0.0002: real time    0.0002
    CHARGE:  cpu time    0.0150: real time    0.0150
    MIXING:  cpu time    0.0063: real time    0.0063
    --------------------------------------------
      LOOP:  cpu time    0.2966: real time    0.2971

 eigenvalue-minimisations  :    64
 total energy-change (2. order) :-0.1718421E-04  (-0.2536021E-05)
 number of electron       8.0000001 magnetization 
 augmentation part        0.1902858 magnetization 

 Broyden mixing:
  rms(total) = 0.25587E-03    rms(broyden)= 0.25524E-03
  rms(prec ) = 0.34944E-03
  weight for this iteration     100.00

 eigenvalues of (default mixing * dielectric matrix)
  average eigenvalue GAMMA=   2.4598
  8.2428  5.1813  3.8311  2.7515  2.4692  2.0095  1.3044  1.3044  0.8820  0.9750
  0.9750  1.0255  1.0255

 Free energy of the ion-electron system (eV)
  ---------------------------------------------------
  alpha Z        PSCENC =         0.25471648
  Ewald energy   TEWEN  =       130.77849005
  -Hartree energ DENC   =      -286.11419930
  -exchange      EXHF   =         0.00000000
  -V(xc)+E(xc)   XCENC  =        24.93734499
  PAW double counting   =       492.93975541     -493.74232372
  entropy T*S    EENTRO =        -0.00000000
  eigenvalues    EBANDS =       -90.10172757
  atomic energy  EATOM  =       197.04175453
  Solvation  Ediel_sol  =         0.00000000
  ---------------------------------------------------
  free energy    TOTEN  =       -24.00618913 eV

  energy without entropy =      -24.00618913  energy(sigma->0) =      -24.00618913


--------------------------------------------------------------------------------------------------------




--------------------------------------- Iteration      1(  19)  ---------------------------------------


    POTLOK:  cpu time    0.1131: real time    0.1139
    SETDIJ:  cpu time    0.0019: real time    0.0019
    EDDIAG:  cpu time    0.0315: real time    0.0315
  RMM-DIIS:  cpu time    0.1064: real time    0.1065
    ORTHCH:  cpu time    0.0015: real time    0.0015
       DOS:  cpu time    0.0002: real time    0.0002
    CHARGE:  cpu time    0.0148: real time    0.0148
    MIXING:  cpu time    0.0065: real time    0.0065
    --------------------------------------------
      LOOP:  cpu time    0.2759: real time    0.2769

 eigenvalue-minimisations  :    48
 total energy-change (2. order) :-0.1607479E-05  (-0.4171875E-07)
 number of electron       8.0000001 magnetization 
 augmentation part        0.1902856 magnetization 

 Broyden mixing:
  rms(total) = 0.22519E-03    rms(broyden)= 0.22515E-03
  rms(prec ) = 0.30266E-03
  weight for this iteration     100.00

 eigenvalues of (default mixing * dielectric matrix)
  average eigenvalue GAMMA=   2.5042
  8.3071  5.2998  4.1481  3.1262  2.6069  2.2313  1.7109  1.3796  1.3796  1.0578
  1.0578  0.9402  0.9402  0.8736

 Free energy of the ion-electron system (eV)
  ---------------------------------------------------
  alpha Z        PSCENC =         0.25471648
  Ewald energy   TEWEN  =       130.77849005
  -Hartree energ DENC   =      -286.11000704
  -exchange      EXHF   =         0.00000000
  -V(xc)+E(xc)   XCENC  =        24.93710664
  PAW double counting   =       492.94237561     -493.74491098
  entropy T*S    EENTRO =        -0.00000000
  eigenvalues    EBANDS =       -90.10571603
  atomic energy  EATOM  =       197.04175453
  Solvation  Ediel_sol  =         0.00000000
  ---------------------------------------------------
  free energy    TOTEN  =       -24.00619074 eV

  energy without entropy =      -24.00619074  energy(sigma->0) =      -24.00619074


--------------------------------------------------------------------------------------------------------




--------------------------------------- Iteration      1(  20)  ---------------------------------------


    POTLOK:  cpu time    0.1141: real time    0.1143
    SETDIJ:  cpu time    0.0022: real time    0.0022
    EDDIAG:  cpu time    0.0309: real time    0.0309
  RMM-DIIS:  cpu time    0.1048: real time    0.1048
    ORTHCH:  cpu time    0.0017: real time    0.0017
       DOS:  cpu time    0.0002: real time    0.0002
    CHARGE:  cpu time    0.0150: real time    0.0150
    MIXING:  cpu time    0.0068: real time    0.0068
    --------------------------------------------
      LOOP:  cpu time    0.2755: real time    0.2759

 eigenvalue-minimisations  :    48
 total energy-change (2. order) :-0.1690900E-05  (-0.8015642E-07)
 number of electron       8.0000001 magnetization 
 augmentation part        0.1902914 magnetization 

 Broyden mixing:
  rms(total) = 0.24575E-04    rms(broyden)= 0.24559E-04
  rms(prec ) = 0.29042E-04
  weight for this iteration     100.00

 eigenvalues of (default mixing * dielectric matrix)
  average eigenvalue GAMMA=   2.4544
  8.2703  5.5791  3.8417  3.8417  2.4744  2.4744  1.7943  1.3623  1.3623  1.0198
  1.0198  1.0293  0.9475  0.9475  0.8509

 Free energy of the ion-electron system (eV)
  ---------------------------------------------------
  alpha Z        PSCENC =         0.25471648
  Ewald energy   TEWEN  =       130.77849005
  -Hartree energ DENC   =      -286.10408051
  -exchange      EXHF   =         0.00000000
  -V(xc)+E(xc)   XCENC  =        24.93683772
  PAW double counting   =       492.96897999     -493.77142970
  entropy T*S    EENTRO =        -0.00000000
  eigenvalues    EBANDS =       -90.11146099
  atomic energy  EATOM  =       197.04175453
  Solvation  Ediel_sol  =         0.00000000
  ---------------------------------------------------
  free energy    TOTEN  =       -24.00619243 eV

  energy without entropy =      -24.00619243  energy(sigma->0) =      -24.00619243


--------------------------------------------------------------------------------------------------------




--------------------------------------- Iteration      1(  21)  ---------------------------------------


    POTLOK:  cpu time    0.1154: real time    0.1158
    SETDIJ:  cpu time    0.0020: real time    0.0020
    EDDIAG:  cpu time    0.0314: real time    0.0314
  RMM-DIIS:  cpu time    0.1044: real time    0.1044
    ORTHCH:  cpu time    0.0014: real time    0.0014
       DOS:  cpu time    0.0002: real time    0.0002
    --------------------------------------------
      LOOP:  cpu time    0.2547: real time    0.2552

 eigenvalue-minimisations  :    48
 total energy-change (2. order) :-0.2459727E-06  (-0.1447382E-07)
 number of electron       8.0000001 magnetization 
 augmentation part        0.1902914 magnetization 

 Free energy of the ion-electron system (eV)
  ---------------------------------------------------
  alpha Z        PSCENC =         0.25471648
  Ewald energy   TEWEN  =       130.77849005
  -Hartree energ DENC   =      -286.10325650
  -exchange      EXHF   =         0.00000000
  -V(xc)+E(xc)   XCENC  =        24.93679071
  PAW double counting   =       492.96878102     -493.77122684
  entropy T*S    EENTRO =        -0.00000000
  eigenvalues    EBANDS =       -90.11224211
  atomic energy  EATOM  =       197.04175453
  Solvation  Ediel_sol  =         0.00000000
  ---------------------------------------------------
  free energy    TOTEN  =       -24.00619267 eV

  energy without entropy =      -24.00619267  energy(sigma->0) =      -24.00619267


--------------------------------------------------------------------------------------------------------




 average (electrostatic) potential at core
  the test charge radii are     0.5201  0.6991
  (the norm of the test charge is              1.0000)
       1 -41.6100       2 -41.6473       3 -41.5875       4 -41.5639       5 -57.8476
 
 
 
 E-fermi :  -8.3588     XC(G=0):  -0.7257     alpha+bet : -0.2215


 k-point     1 :       0.2500    0.2500    0.2500
  band No.  band energies     occupation 
      1     -17.0112      2.00000
      2      -9.4095      2.00000
      3      -9.3313      2.00000
      4      -9.3042      2.00000
      5      -0.2895      0.00000
      6       0.6066      0.00000
      7       0.7083      0.00000
      8       0.7281      0.00000

 k-point     2 :      -0.2500    0.2500    0.2500
  band No.  band energies     occupation 
      1     -17.0111      2.00000
      2      -9.4096      2.00000
      3      -9.3312      2.00000
      4      -9.3041      2.00000
      5      -0.2855      0.00000
      6       0.5959      0.00000
      7       0.6925      0.00000
      8       0.7227      0.00000

 k-point     3 :       0.2500   -0.2500    0.2500
  band No.  band energies     occupation 
      1     -17.0112      2.00000
      2      -9.4096      2.00000
      3      -9.3312      2.00000
      4      -9.3041      2.00000
      5      -0.2861      0.00000
      6       0.5962      0.00000
      7       0.6964      0.00000
      8       0.7234      0.00000

 k-point     4 :      -0.2500   -0.2500    0.2500
  band No.  band energies     occupation 
      1     -17.0112      2.00000
      2      -9.4096      2.00000
      3      -9.3313      2.00000
      4      -9.3041      2.00000
      5      -0.2873      0.00000
      6       0.6020      0.00000
      7       0.7031      0.00000
      8       0.7217      0.00000


--------------------------------------------------------------------------------------------------------


 soft charge-density along one line, spin component           1
         0         1         2         3         4         5         6         7         8         9
 total charge-density along one line
 
 pseudopotential strength for first ion, spin component:           1
 -2.342  -4.035  -0.001  -0.001   0.001
 -4.035  -6.868  -0.003  -0.004   0.002
 -0.001  -0.003  -0.336   0.002  -0.001
 -0.001  -0.004   0.002  -0.335  -0.001
  0.001   0.002  -0.001  -0.001  -0.337
 total augmentation occupancy for first ion, spin component:           1
  3.609  -0.646   0.251   0.349  -0.137
 -0.646   0.130  -0.046  -0.064   0.025
  0.251  -0.046   0.024   0.020  -0.008
  0.349  -0.064   0.020   0.038  -0.011
 -0.137   0.025  -0.008  -0.011   0.014


------------------------ aborting loop because EDIFF is reached ----------------------------------------


    CHARGE:  cpu time    0.0147: real time    0.0147
    FORLOC:  cpu time    0.0112: real time    0.0112
    FORNL :  cpu time    0.0191: real time    0.0191
    STRESS:  cpu time    0.1440: real time    0.1443
    FORCOR:  cpu time    0.1146: real time    0.1152
    FORHAR:  cpu time    0.0366: real time    0.0366
    MIXING:  cpu time    0.0067: real time    0.0067
    OFIELD:  cpu time    0.0001: real time    0.0001

  FORCE on cell =-STRESS in cart. coord.  units (eV):
  Direction    XX          YY          ZZ          XY          YZ          ZX
  --------------------------------------------------------------------------------------
  Alpha Z     0.25472     0.25472     0.25472
  Ewald      44.10036    43.60871    43.06938     0.54266     0.93503     0.80253
  Hartree    95.88393    95.59307    94.62818     0.29741     0.23537     0.30196
  E(xc)     -27.42521   -27.42174   -27.41783     0.00251     0.00366     0.00415
  Local    -198.45330  -197.81658  -196.20840    -0.79314    -0.96768    -0.98715
  n-local   -16.36680   -16.32891   -16.32424     0.00580    -0.00346     0.00184
  augment     0.10592     0.10780     0.10706    -0.00015    -0.00164    -0.00080
  Kinetic   102.61386   102.40865   102.21388    -0.12611    -0.18625    -0.19867
  Fock        0.00000     0.00000     0.00000     0.00000     0.00000     0.00000
  -------------------------------------------------------------------------------------
  Total       0.71348     0.40572     0.32275    -0.07102     0.01503    -0.07614
  in kB       1.20195     0.68349     0.54370    -0.11963     0.02532    -0.12826
  external pressure =        0.81 kB  Pullay stress =        0.00 kB

  kinetic pressure (ideal gas correction) =      0.00 kB
  total pressure  =      0.81 kB
  Total+kin.     1.202       0.683       0.544      -0.120       0.025      -0.128

 VOLUME and BASIS-vectors are now :
 -----------------------------------------------------------------------------
  energy-cutoff  :      400.00
  volume of cell :      951.06
      direct lattice vectors                 reciprocal lattice vectors
     9.779468526  0.000000000  0.000000000     0.102255046 -0.001248322 -0.000671906
     0.119833175  9.816014705  0.000000000     0.000000000  0.101874338 -0.000365497
     0.065534029  0.035544900  9.907354660     0.000000000  0.000000000  0.100935117

  length of vectors
     9.779468526  9.816746135  9.907635163     0.102264872  0.101874994  0.100935117


 FORCES acting on ions
    electron-ion (+dipol)            ewald-force                    non-local-force                 convergence-correction
 -----------------------------------------------------------------------------------------------
   -.165E+02 0.299E+02 0.417E+02   0.185E+02 -.335E+02 -.466E+02   -.174E+01 0.320E+01 0.446E+01   0.431E-04 -.813E-04 -.118E-03
   0.536E+02 -.666E+01 0.343E+01   -.603E+02 0.750E+01 -.382E+01   0.579E+01 -.713E+00 0.375E+00   -.146E-03 0.192E-04 -.749E-05
   -.242E+02 -.481E+02 0.907E+00   0.270E+02 0.537E+02 -.106E+01   -.256E+01 -.511E+01 0.783E-01   0.623E-04 0.131E-03 -.121E-05
   -.121E+02 0.246E+02 -.462E+02   0.135E+02 -.275E+02 0.515E+02   -.127E+01 0.259E+01 -.489E+01   0.295E-04 -.653E-04 0.131E-03
   -.112E+01 0.224E+00 0.178E-01   0.131E+01 -.252E+00 0.425E-01   0.182E-01 0.125E-01 0.114E+00   -.128E-04 0.474E-05 0.169E-04
 -----------------------------------------------------------------------------------------------
   -.226E+00 0.272E-01 -.133E+00   0.178E-14 0.355E-14 -.709E-14   0.226E+00 -.266E-01 0.133E+00   -.243E-04 0.830E-05 0.214E-04
 
 
 POSITION                                       TOTAL-FORCE (eV/Angst)
 -----------------------------------------------------------------------------------
      5.33688      4.00339      3.57503         0.267003     -0.327933     -0.450092
      3.94487      4.73427      4.34209        -0.828239      0.125672     -0.016848
      5.49245      5.56853      4.39202         0.254732      0.477944     -0.073708
      5.25082      4.10661      5.34197         0.101244     -0.259749      0.366568
      5.00778      4.60244      4.40965         0.204842     -0.015370      0.174057
 -----------------------------------------------------------------------------------
    total drift:                               -0.000419      0.000564     -0.000023


--------------------------------------------------------------------------------------------------------



  FREE ENERGIE OF THE ION-ELECTRON SYSTEM (eV)
  ---------------------------------------------------
  free  energy   TOTEN  =       -24.00619267 eV

  energy  without entropy=      -24.00619267  energy(sigma->0) =      -24.00619267
 


--------------------------------------------------------------------------------------------------------


    POTLOK:  cpu time    0.1177: real time    0.1177


--------------------------------------------------------------------------------------------------------


           RANDOM_SEED =         172293892                0                0
           RANDOM_SEED =         172293892               30                0
   IONSTEP:  cpu time    0.0026: real time    0.0026

  ENERGY OF THE ELECTRON-ION-THERMOSTAT SYSTEM (eV)
  ---------------------------------------------------
% ion-electron   TOTEN  =       -24.006193  see above
  kinetic energy EKIN   =         0.000484
  kin. lattice  EKIN_LAT=         0.000000  (temperature    0.94 K)
  nose potential ES     =         0.000000
  nose kinetic   EPS    =         0.000000
  ---------------------------------------------------
  total energy   ETOTAL =       -24.005709 eV

  maximum distance moved by ions :      0.21E-03

    WAVPRE:  cpu time    0.0354: real time    0.0357
    FEWALD:  cpu time    0.0011: real time    0.0011
    ORTHCH:  cpu time    0.0087: real time    0.0087
     LOOP+:  cpu time    6.1931: real time    6.2065


--------------------------------------- Iteration      2(   1)  ---------------------------------------


    POTLOK:  cpu time    0.1168: real time    0.1169
    SETDIJ:  cpu time    0.0021: real time    0.0021
     EDDAV:  cpu time    0.1238: real time    0.1238
       DOS:  cpu time    0.0002: real time    0.0002
    CHARGE:  cpu time    0.0144: real time    0.0144
    MIXING:  cpu time    0.0057: real time    0.0057
    --------------------------------------------
      LOOP:  cpu time    0.2631: real time    0.2632

 eigenvalue-minimisations  :    64
 total energy-change (2. order) :-0.3745190E-02  (-0.4706607E-03)
 number of electron       8.0000001 magnetization 
 augmentation part        0.1897573 magnetization 

 Broyden mixing:
  rms(total) = 0.39055E-02    rms(broyden)= 0.39032E-02
  rms(prec ) = 0.52494E-02
  weight for this iteration     100.00

 Free energy of the ion-electron system (eV)
  ---------------------------------------------------
  alpha Z        PSCENC =         0.25471648
  Ewald energy   TEWEN  =       130.42239977
  -Hartree energ DENC   =      -285.90259559
  -exchange      EXHF   =         0.00000000
  -V(xc)+E(xc)   XCENC  =        24.92663159
  PAW double counting   =       492.97137641     -493.77383014
  entropy T*S    EENTRO =        -0.00000000
  eigenvalues    EBANDS =       -89.95039068
  atomic energy  EATOM  =       197.04175453
  Solvation  Ediel_sol  =         0.00000000
  ---------------------------------------------------
  free energy    TOTEN  =       -24.00993762 eV

  energy without entropy =      -24.00993762  energy(sigma->0) =      -24.00993762


--------------------------------------------------------------------------------------------------------




--------------------------------------- Iteration      2(   2)  ---------------------------------------


    POTLOK:  cpu time    0.1147: real time    0.1150
    SETDIJ:  cpu time    0.0019: real time    0.0019
    EDDIAG:  cpu time    0.0323: real time    0.0323
  RMM-DIIS:  cpu time    0.1317: real time    0.1317
    ORTHCH:  cpu time    0.0014: real time    0.0014
       DOS:  cpu time    0.0002: real time    0.0002
    CHARGE:  cpu time    0.0147: real time    0.0148
    MIXING:  cpu time    0.0042: real time    0.0042
    --------------------------------------------
      LOOP:  cpu time    0.3012: real time    0.3016

 eigenvalue-minimisations  :    64
 total energy-change (2. order) : 0.5009282E-04  (-0.1124441E-04)
 number of electron       8.0000001 magnetization 
 augmentation part        0.1898028 magnetization 

 Broyden mixing:
  rms(total) = 0.17240E-02    rms(broyden)= 0.17239E-02
  rms(prec ) = 0.21769E-02
  weight for this iteration     100.00

 eigenvalues of (default mixing * dielectric matrix)
  average eigenvalue GAMMA=   1.6621
  1.6621

 Free energy of the ion-electron system (eV)
  ---------------------------------------------------
  alpha Z        PSCENC =         0.25471648
  Ewald energy   TEWEN  =       130.42239977
  -Hartree energ DENC   =      -285.83026982
  -exchange      EXHF   =         0.00000000
  -V(xc)+E(xc)   XCENC  =        24.92269632
  PAW double counting   =       492.03915479     -492.84078159
  entropy T*S    EENTRO =        -0.00000000
  eigenvalues    EBANDS =       -90.01955801
  atomic energy  EATOM  =       197.04175453
  Solvation  Ediel_sol  =         0.00000000
  ---------------------------------------------------
  free energy    TOTEN  =       -24.00988753 eV

  energy without entropy =      -24.00988753  energy(sigma->0) =      -24.00988753


--------------------------------------------------------------------------------------------------------




--------------------------------------- Iteration      2(   3)  ---------------------------------------


    POTLOK:  cpu time    0.1067: real time    0.1073
    SETDIJ:  cpu time    0.0024: real time    0.0024
    EDDIAG:  cpu time    0.0321: real time    0.0325
  RMM-DIIS:  cpu time    0.1305: real time    0.1305
    ORTHCH:  cpu time    0.0015: real time    0.0015
       DOS:  cpu time    0.0002: real time    0.0002
    CHARGE:  cpu time    0.0147: real time    0.0147
    MIXING:  cpu time    0.0044: real time    0.0044
    --------------------------------------------
      LOOP:  cpu time    0.2925: real time    0.2935

 eigenvalue-minimisations  :    64
 total energy-change (2. order) : 0.3061531E-05  (-0.7870101E-05)
 number of electron       8.0000001 magnetization 
 augmentation part        0.1898756 magnetization 

 Broyden mixing:
  rms(total) = 0.80586E-03    rms(broyden)= 0.80539E-03
  rms(prec ) = 0.92934E-03
  weight for this iteration     100.00

 eigenvalues of (default mixing * dielectric matrix)
  average eigenvalue GAMMA=   1.2258
  1.1860  1.2656

 Free energy of the ion-electron system (eV)
  ---------------------------------------------------
  alpha Z        PSCENC =         0.25471648
  Ewald energy   TEWEN  =       130.42239977
  -Hartree energ DENC   =      -285.78606399
  -exchange      EXHF   =         0.00000000
  -V(xc)+E(xc)   XCENC  =        24.92023326
  PAW double counting   =       491.19530423     -491.99634075
  entropy T*S    EENTRO =        -0.00000000
  eigenvalues    EBANDS =       -90.06188799
  atomic energy  EATOM  =       197.04175453
  Solvation  Ediel_sol  =         0.00000000
  ---------------------------------------------------
  free energy    TOTEN  =       -24.00988446 eV

  energy without entropy =      -24.00988446  energy(sigma->0) =      -24.00988446


--------------------------------------------------------------------------------------------------------




--------------------------------------- Iteration      2(   4)  ---------------------------------------


    POTLOK:  cpu time    0.1079: real time    0.1081
    SETDIJ:  cpu time    0.0019: real time    0.0019
    EDDIAG:  cpu time    0.0318: real time    0.0318
  RMM-DIIS:  cpu time    0.1074: real time    0.1075
    ORTHCH:  cpu time    0.0015: real time    0.0015
       DOS:  cpu time    0.0002: real time    0.0002
    --------------------------------------------
      LOOP:  cpu time    0.2507: real time    0.2509

 eigenvalue-minimisations  :    48
 total energy-change (2. order) : 0.2737814E-06  (-0.1564590E-06)
 number of electron       8.0000001 magnetization 
 augmentation part        0.1898756 magnetization 

 Free energy of the ion-electron system (eV)
  ---------------------------------------------------
  alpha Z        PSCENC =         0.25471648
  Ewald energy   TEWEN  =       130.42239977
  -Hartree energ DENC   =      -285.79487346
  -exchange      EXHF   =         0.00000000
  -V(xc)+E(xc)   XCENC  =        24.92060164
  PAW double counting   =       491.10185499     -491.90300563
  entropy T*S    EENTRO =        -0.00000000
  eigenvalues    EBANDS =       -90.05333251
  atomic energy  EATOM  =       197.04175453
  Solvation  Ediel_sol  =         0.00000000
  ---------------------------------------------------
  free energy    TOTEN  =       -24.00988419 eV

  energy without entropy =      -24.00988419  energy(sigma->0) =      -24.00988419


--------------------------------------------------------------------------------------------------------




 average (electrostatic) potential at core
  the test charge radii are     0.5201  0.6991
  (the norm of the test charge is              1.0000)
       1 -41.5988       2 -41.6309       3 -41.5782       4 -41.5566       5 -57.8572
 
 
 
 E-fermi :  -8.3401     XC(G=0):  -0.6905     alpha+bet : -0.2215


 k-point     1 :       0.2500    0.2500    0.2500
  band No.  band energies     occupation 
      1     -16.9996      2.00000
      2      -9.4024      2.00000
      3      -9.3242      2.00000
      4      -9.3005      2.00000
      5      -0.2771      0.00000
      6       0.6373      0.00000
      7       0.7304      0.00000
      8       0.7542      0.00000

 k-point     2 :      -0.2500    0.2500    0.2500
  band No.  band energies     occupation 
      1     -16.9996      2.00000
      2      -9.4025      2.00000
      3      -9.3241      2.00000
      4      -9.3004      2.00000
      5      -0.2733      0.00000
      6       0.6254      0.00000
      7       0.7161      0.00000
      8       0.7492      0.00000

 k-point     3 :       0.2500   -0.2500    0.2500
  band No.  band energies     occupation 
      1     -16.9996      2.00000
      2      -9.4025      2.00000
      3      -9.3241      2.00000
      4      -9.3004      2.00000
      5      -0.2738      0.00000
      6       0.6252      0.00000
      7       0.7206      0.00000
      8       0.7498      0.00000

 k-point     4 :      -0.2500   -0.2500    0.2500
  band No.  band energies     occupation 
      1     -16.9996      2.00000
      2      -9.4025      2.00000
      3      -9.3242      2.00000
      4      -9.3004      2.00000
      5      -0.2750      0.00000
      6       0.6324      0.00000
      7       0.7257      0.00000
      8       0.7481      0.00000


--------------------------------------------------------------------------------------------------------


 soft charge-density along one line, spin component           1
         0         1         2         3         4         5         6         7         8         9
 total charge-density along one line
 
 pseudopotential strength for first ion, spin component:           1
 -2.342  -4.035  -0.001  -0.001   0.001
 -4.035  -6.868  -0.003  -0.004   0.002
 -0.001  -0.003  -0.336   0.002  -0.001
 -0.001  -0.004   0.002  -0.335  -0.001
  0.001   0.002  -0.001  -0.001  -0.338
 total augmentation occupancy for first ion, spin component:           1
  3.604  -0.646   0.250   0.348  -0.137
 -0.646   0.130  -0.046  -0.064   0.025
  0.250  -0.046   0.024   0.020  -0.008
  0.348  -0.064   0.020   0.038  -0.011
 -0.137   0.025  -0.008  -0.011   0.014


------------------------ aborting loop because EDIFF is reached ----------------------------------------


    CHARGE:  cpu time    0.0149: real time    0.0149
    FORLOC:  cpu time    0.0112: real time    0.0112
    FORNL :  cpu time    0.0191: real time    0.0191
    STRESS:  cpu time    0.1442: real time    0.1444
    FORCOR:  cpu time    0.1167: real time    0.1167
    FORHAR:  cpu time    0.0391: real time    0.0391
    MIXING:  cpu time    0.0055: real time    0.0055
    OFIELD:  cpu time    0.0000: real time    0.0000

  FORCE on cell =-STRESS in cart. coord.  units (eV):
  Direction    XX          YY          ZZ          XY          YZ          ZX
  --------------------------------------------------------------------------------------
  Alpha Z     0.25472     0.25472     0.25472
  Ewald      43.96265    43.50520    42.95452     0.53858     0.90984     0.78703
  Hartree    95.79283    95.49043    94.52052     0.29367     0.23341     0.29682
  E(xc)     -27.40759   -27.40434   -27.40052     0.00243     0.00363     0.00404
  Local    -198.26024  -197.62416  -196.00042    -0.78411    -0.94911    -0.96887
  n-local   -16.32752   -16.29273   -16.28836     0.00536    -0.00281     0.00166
  augment     0.10686     0.10846     0.10771    -0.00018    -0.00154    -0.00079
  Kinetic   102.50031   102.30592   102.11586    -0.12222    -0.18447    -0.19352
  Fock        0.00000     0.00000     0.00000     0.00000     0.00000     0.00000
  -------------------------------------------------------------------------------------
  Total       0.62203     0.34349     0.26402    -0.06648     0.00893    -0.07361
  in kB       1.04788     0.57865     0.44477    -0.11199     0.01505    -0.12401
  external pressure =        0.69 kB  Pullay stress =        0.00 kB

  kinetic pressure (ideal gas correction) =      0.00 kB
  total pressure  =      0.69 kB
  Total+kin.     1.051       0.580       0.446      -0.112       0.015      -0.124

 VOLUME and BASIS-vectors are now :
 -----------------------------------------------------------------------------
  energy-cutoff  :      400.00
[...]
 -----------------------------------------------------------------------------------------------
   0.198E+00 -.267E-01 0.961E-01   0.178E-14 0.356E-14 0.711E-14   -.198E+00 0.263E-01 -.960E-01   -.397E-04 0.719E-07 0.277E-04
 
 
 POSITION                                       TOTAL-FORCE (eV/Angst)
 -----------------------------------------------------------------------------------
      5.35254      3.98679      3.55227        -0.112122      0.249490      0.345811
      3.90270      4.74126      4.34209         0.586854     -0.067243      0.042517
      5.50596      5.59334      4.38651        -0.169668     -0.346594     -0.018787
      5.25615      4.09167      5.36076        -0.072047      0.127742     -0.284625
      5.00841      4.60242      4.41044        -0.233205      0.036197     -0.084790
 -----------------------------------------------------------------------------------
    total drift:                               -0.000188     -0.000409      0.000126


--------------------------------------------------------------------------------------------------------



  FREE ENERGIE OF THE ION-ELECTRON SYSTEM (eV)
  ---------------------------------------------------
  free  energy   TOTEN  =       -24.01661350 eV

  energy  without entropy=      -24.01661350  energy(sigma->0) =      -24.01661350
 
 d Force =-0.6055933E-02[-0.704E-02,-0.507E-02]  d Energy =-0.6062286E-02 0.635E-05
 d Force = 0.8924027E+00[ 0.889E+00, 0.896E+00]  d Ewald  = 0.8923969E+00 0.583E-05


--------------------------------------------------------------------------------------------------------


    POTLOK:  cpu time    0.1218: real time    0.1218


--------------------------------------------------------------------------------------------------------


           RANDOM_SEED =         172293892               30                0
   IONSTEP:  cpu time    0.0002: real time    0.0001

  ENERGY OF THE ELECTRON-ION-THERMOSTAT SYSTEM (eV)
  ---------------------------------------------------
% ion-electron   TOTEN  =       -24.016613  see above
  kinetic energy EKIN   =         0.010709
  kin. lattice  EKIN_LAT=         0.000000  (temperature   20.71 K)
  nose potential ES     =         0.000000
  nose kinetic   EPS    =         0.000000
  ---------------------------------------------------
  total energy   ETOTAL =       -24.005905 eV

  maximum distance moved by ions :      0.39E-03

    WAVPRE:  cpu time    0.0409: real time    0.0412
    FEWALD:  cpu time    0.0009: real time    0.0009
    ORTHCH:  cpu time    0.0083: real time    0.0083
 Prediction of Wavefunctions ALPHA= 2.154 BETA=-1.190
     LOOP+:  cpu time    1.8828: real time    1.8866


--------------------------------------- Iteration     10(   1)  ---------------------------------------


    POTLOK:  cpu time    0.1156: real time    0.1161
    SETDIJ:  cpu time    0.0021: real time    0.0021
     EDDAV:  cpu time    0.1230: real time    0.1233
       DOS:  cpu time    0.0002: real time    0.0002
    CHARGE:  cpu time    0.0144: real time    0.0144
    MIXING:  cpu time    0.0039: real time    0.0039
    --------------------------------------------
      LOOP:  cpu time    0.2592: real time    0.2601

 eigenvalue-minimisations  :    64
 total energy-change (2. order) : 0.5639180E-02  (-0.3792457E-04)
 number of electron       7.9999998 magnetization 
 augmentation part        0.1806620 magnetization 

 Broyden mixing:
  rms(total) = 0.48012E-03    rms(broyden)= 0.47995E-03
  rms(prec ) = 0.67140E-03
  weight for this iteration     100.00

 Free energy of the ion-electron system (eV)
  ---------------------------------------------------
  alpha Z        PSCENC =         0.25471648
  Ewald energy   TEWEN  =       122.70659076
  -Hartree energ DENC   =      -279.03090075
  -exchange      EXHF   =         0.00000000
  -V(xc)+E(xc)   XCENC  =        24.56263369
  PAW double counting   =       444.34908407     -445.12328754
  entropy T*S    EENTRO =        -0.00000000
  eigenvalues    EBANDS =       -88.77156548
  atomic energy  EATOM  =       197.04175453
  Solvation  Ediel_sol  =         0.00000000
  ---------------------------------------------------
  free energy    TOTEN  =       -24.01097425 eV

  energy without entropy =      -24.01097425  energy(sigma->0) =      -24.01097425


--------------------------------------------------------------------------------------------------------




--------------------------------------- Iteration     10(   2)  ---------------------------------------


    POTLOK:  cpu time    0.1149: real time    0.1151
    SETDIJ:  cpu time    0.0019: real time    0.0019
    EDDIAG:  cpu time    0.0307: real time    0.0307
  RMM-DIIS:  cpu time    0.1325: real time    0.1325
    ORTHCH:  cpu time    0.0019: real time    0.0019
       DOS:  cpu time    0.0002: real time    0.0002
    CHARGE:  cpu time    0.0148: real time    0.0148
    MIXING:  cpu time    0.0040: real time    0.0040
    --------------------------------------------
      LOOP:  cpu time    0.3009: real time    0.3010

 eigenvalue-minimisations  :    64
 total energy-change (2. order) :-0.1289251E-05  (-0.5671800E-06)
 number of electron       7.9999998 magnetization 
 augmentation part        0.1806806 magnetization 

 Broyden mixing:
  rms(total) = 0.27589E-03    rms(broyden)= 0.27581E-03
  rms(prec ) = 0.37672E-03
  weight for this iteration     100.00

 eigenvalues of (default mixing * dielectric matrix)
  average eigenvalue GAMMA=   1.8481
  1.8481

 Free energy of the ion-electron system (eV)
  ---------------------------------------------------
  alpha Z        PSCENC =         0.25471648
  Ewald energy   TEWEN  =       122.70659076
  -Hartree energ DENC   =      -279.02206015
  -exchange      EXHF   =         0.00000000
  -V(xc)+E(xc)   XCENC  =        24.56219844
  PAW double counting   =       444.29445860     -445.06855426
  entropy T*S    EENTRO =        -0.00000000
  eigenvalues    EBANDS =       -88.78007994
  atomic energy  EATOM  =       197.04175453
  Solvation  Ediel_sol  =         0.00000000
  ---------------------------------------------------
  free energy    TOTEN  =       -24.01097553 eV

  energy without entropy =      -24.01097553  energy(sigma->0) =      -24.01097553


--------------------------------------------------------------------------------------------------------




--------------------------------------- Iteration     10(   3)  ---------------------------------------


    POTLOK:  cpu time    0.1165: real time    0.1167
    SETDIJ:  cpu time    0.0019: real time    0.0019
    EDDIAG:  cpu time    0.0308: real time    0.0311
  RMM-DIIS:  cpu time    0.1270: real time    0.1271
    ORTHCH:  cpu time    0.0017: real time    0.0017
       DOS:  cpu time    0.0002: real time    0.0002
    CHARGE:  cpu time    0.0147: real time    0.0147
    MIXING:  cpu time    0.0042: real time    0.0042
    --------------------------------------------
      LOOP:  cpu time    0.2970: real time    0.2975

 eigenvalue-minimisations  :    60
 total energy-change (2. order) :-0.2859138E-05  (-0.4073056E-06)
 number of electron       7.9999998 magnetization 
 augmentation part        0.1806998 magnetization 

 Broyden mixing:
  rms(total) = 0.14137E-03    rms(broyden)= 0.14122E-03
  rms(prec ) = 0.19920E-03
  weight for this iteration     100.00

 eigenvalues of (default mixing * dielectric matrix)
  average eigenvalue GAMMA=   1.1956
  1.1956  1.1956

 Free energy of the ion-electron system (eV)
  ---------------------------------------------------
  alpha Z        PSCENC =         0.25471648
  Ewald energy   TEWEN  =       122.70659076
  -Hartree energ DENC   =      -279.01324474
  -exchange      EXHF   =         0.00000000
  -V(xc)+E(xc)   XCENC  =        24.56179758
  PAW double counting   =       444.25242567     -445.02641666
  entropy T*S    EENTRO =        -0.00000000
  eigenvalues    EBANDS =       -88.78860201
  atomic energy  EATOM  =       197.04175453
  Solvation  Ediel_sol  =         0.00000000
  ---------------------------------------------------
  free energy    TOTEN  =       -24.01097839 eV

  energy without entropy =      -24.01097839  energy(sigma->0) =      -24.01097839


--------------------------------------------------------------------------------------------------------




--------------------------------------- Iteration     10(   4)  ---------------------------------------


    POTLOK:  cpu time    0.1162: real time    0.1163
    SETDIJ:  cpu time    0.0019: real time    0.0019
    EDDIAG:  cpu time    0.0305: real time    0.0305
  RMM-DIIS:  cpu time    0.1057: real time    0.1061
    ORTHCH:  cpu time    0.0014: real time    0.0014
       DOS:  cpu time    0.0002: real time    0.0002
    --------------------------------------------
      LOOP:  cpu time    0.2558: real time    0.2564

 eigenvalue-minimisations  :    48
 total energy-change (2. order) :-0.1310689E-06  (-0.2179858E-07)
 number of electron       7.9999998 magnetization 
 augmentation part        0.1806998 magnetization 

 Free energy of the ion-electron system (eV)
  ---------------------------------------------------
  alpha Z        PSCENC =         0.25471648
  Ewald energy   TEWEN  =       122.70659076
  -Hartree energ DENC   =      -279.01687086
  -exchange      EXHF   =         0.00000000
  -V(xc)+E(xc)   XCENC  =        24.56196197
  PAW double counting   =       444.26499995     -445.03903714
  entropy T*S    EENTRO =        -0.00000000
  eigenvalues    EBANDS =       -88.78509422
  atomic energy  EATOM  =       197.04175453
  Solvation  Ediel_sol  =         0.00000000
  ---------------------------------------------------
  free energy    TOTEN  =       -24.01097852 eV

  energy without entropy =      -24.01097852  energy(sigma->0) =      -24.01097852


--------------------------------------------------------------------------------------------------------




 average (electrostatic) potential at core
  the test charge radii are     0.5201  0.6991
  (the norm of the test charge is              1.0000)
       1 -41.3868       2 -41.3343       3 -41.3996       4 -41.4172       5 -58.0570
 
 
 
 E-fermi :  -8.2290     XC(G=0):  -0.7543     alpha+bet : -0.2215


 k-point     1 :       0.2500    0.2500    0.2500
  band No.  band energies     occupation 
      1     -16.7488      2.00000
      2      -9.2370      2.00000
      3      -9.2259      2.00000
      4      -9.1809      2.00000
      5      -0.3350      0.00000
      6       0.5645      0.00000
      7       0.6886      0.00000
      8       0.7199      0.00000

 k-point     2 :      -0.2500    0.2500    0.2500
  band No.  band energies     occupation 
      1     -16.7488      2.00000
      2      -9.2371      2.00000
      3      -9.2258      2.00000
      4      -9.1808      2.00000
      5      -0.3310      0.00000
      6       0.5494      0.00000
      7       0.6741      0.00000
      8       0.7170      0.00000

 k-point     3 :       0.2500   -0.2500    0.2500
  band No.  band energies     occupation 
      1     -16.7488      2.00000
      2      -9.2371      2.00000
      3      -9.2258      2.00000
      4      -9.1808      2.00000
      5      -0.3317      0.00000
      6       0.5514      0.00000
      7       0.6787      0.00000
      8       0.7166      0.00000

 k-point     4 :      -0.2500   -0.2500    0.2500
  band No.  band energies     occupation 
      1     -16.7488      2.00000
      2      -9.2371      2.00000
      3      -9.2258      2.00000
      4      -9.1808      2.00000
      5      -0.3329      0.00000
      6       0.5577      0.00000
      7       0.6861      0.00000
      8       0.7142      0.00000


--------------------------------------------------------------------------------------------------------


 soft charge-density along one line, spin component           1
         0         1         2         3         4         5         6         7         8         9
 total charge-density along one line
 
 pseudopotential strength for first ion, spin component:           1
 -2.340  -4.032  -0.001  -0.001   0.001
 -4.032  -6.861  -0.003  -0.004   0.002
 -0.001  -0.003  -0.338   0.002  -0.001
 -0.001  -0.004   0.002  -0.337  -0.001
  0.001   0.002  -0.001  -0.001  -0.339
 total augmentation occupancy for first ion, spin component:           1
  3.483  -0.629   0.228   0.318  -0.128
 -0.629   0.127  -0.042  -0.059   0.024
  0.228  -0.042   0.021   0.017  -0.007
  0.318  -0.059   0.017   0.033  -0.010
 -0.128   0.024  -0.007  -0.010   0.012


------------------------ aborting loop because EDIFF is reached ----------------------------------------


    CHARGE:  cpu time    0.0154: real time    0.0158
    FORLOC:  cpu time    0.0111: real time    0.0111
    FORNL :  cpu time    0.0189: real time    0.0189
    STRESS:  cpu time    0.1433: real time    0.1433
    FORCOR:  cpu time    0.1159: real time    0.1159
    FORHAR:  cpu time    0.0391: real time    0.0391
    MIXING:  cpu time    0.0046: real time    0.0046
    OFIELD:  cpu time    0.0001: real time    0.0000

  FORCE on cell =-STRESS in cart. coord.  units (eV):
  Direction    XX          YY          ZZ          XY          YZ          ZX
  --------------------------------------------------------------------------------------
  Alpha Z     0.25472     0.25472     0.25472
  Ewald      41.16824    41.27766    40.26066     0.32411     0.17045     0.23719
  Hartree    93.74678    93.20738    92.06639     0.18298     0.12573     0.12124
  E(xc)     -27.01623   -27.01678   -27.01609     0.00029     0.00150     0.00062
  Local    -194.09082  -193.40524  -191.19927    -0.46078    -0.30664    -0.32656
  n-local   -15.47102   -15.49657   -15.49890    -0.00341     0.00814    -0.00206
  augment     0.12557     0.12308     0.12298    -0.00041     0.00022    -0.00021
  Kinetic    99.97236    99.99632    99.96317    -0.01294    -0.07789    -0.02633
  Fock        0.00000     0.00000     0.00000     0.00000     0.00000     0.00000
  -------------------------------------------------------------------------------------
  Total      -1.31040    -1.05943    -1.04635     0.02985    -0.07848     0.00390
  in kB      -2.20753    -1.78475    -1.76270     0.05029    -0.13222     0.00657
  external pressure =       -1.92 kB  Pullay stress =        0.00 kB

  kinetic pressure (ideal gas correction) =      0.01 kB
  total pressure  =     -1.91 kB
  Total+kin.    -2.194      -1.777      -1.758       0.048      -0.134       0.003

 VOLUME and BASIS-vectors are now :
 -----------------------------------------------------------------------------
  energy-cutoff  :      400.00
  volume of cell :      951.06
      direct lattice vectors                 reciprocal lattice vectors
     9.779468526  0.000000000  0.000000000     0.102255046 -0.001248322 -0.000671906
     0.119833175  9.816014705  0.000000000     0.000000000  0.101874338 -0.000365497
     0.065534029  0.035544900  9.907354660     0.000000000  0.000000000  0.100935117

  length of vectors
     9.779468526  9.816746135  9.907635163     0.102264872  0.101874994  0.100935117


 FORCES acting on ions
    electron-ion (+dipol)            ewald-force                    non-local-force                 convergence-correction
 -----------------------------------------------------------------------------------------------
   -.161E+02 0.287E+02 0.400E+02   0.176E+02 -.313E+02 -.437E+02   -.163E+01 0.292E+01 0.407E+01   0.825E-04 -.170E-03 -.235E-03
   0.510E+02 -.643E+01 0.314E+01   -.554E+02 0.699E+01 -.342E+01   0.513E+01 -.645E+00 0.315E+00   -.290E-03 0.334E-04 -.181E-04
   -.233E+02 -.463E+02 0.119E+01   0.255E+02 0.506E+02 -.131E+01   -.238E+01 -.473E+01 0.116E+00   0.122E-03 0.248E-03 -.611E-09
   -.116E+02 0.240E+02 -.446E+02   0.128E+02 -.263E+02 0.488E+02   -.119E+01 0.246E+01 -.458E+01   0.584E-04 -.142E-03 0.272E-03
   0.296E+00 -.720E-02 0.391E+00   -.400E+00 0.189E-01 -.457E+00   -.149E+00 0.263E-01 -.366E-01   -.752E-04 -.338E-04 -.272E-04
 -----------------------------------------------------------------------------------------------
   0.224E+00 -.297E-01 0.112E+00   0.711E-14 0.356E-14 0.711E-14   -.224E+00 0.295E-01 -.112E+00   -.103E-03 -.646E-04 -.799E-05
 
 
 POSITION                                       TOTAL-FORCE (eV/Angst)
 -----------------------------------------------------------------------------------
      5.35463      3.98543      3.55043        -0.149030      0.295819      0.409444
      3.89903      4.74207      4.34237         0.694060     -0.083917      0.043962
      5.50730      5.59557      4.38538        -0.206031     -0.416727     -0.008684
      5.25665      4.08978      5.36232        -0.086787      0.166586     -0.341442
      5.00839      4.60244      4.41053        -0.252563      0.037930     -0.103161
 -----------------------------------------------------------------------------------
    total drift:                               -0.000351     -0.000310      0.000119


--------------------------------------------------------------------------------------------------------



  FREE ENERGIE OF THE ION-ELECTRON SYSTEM (eV)
  ---------------------------------------------------
  free  energy   TOTEN  =       -24.01097852 eV

  energy  without entropy=      -24.01097852  energy(sigma->0) =      -24.01097852
 
 d Force =-0.5632033E-02[-0.616E-02,-0.511E-02]  d Energy =-0.5634974E-02 0.294E-05
 d Force = 0.6497149E+00[ 0.648E+00, 0.651E+00]  d Ewald  = 0.6497129E+00 0.204E-05


--------------------------------------------------------------------------------------------------------


    POTLOK:  cpu time    0.1200: real time    0.1200


--------------------------------------------------------------------------------------------------------


           RANDOM_SEED =         172293892               30                0
   IONSTEP:  cpu time    0.0001: real time    0.0001

  ENERGY OF THE ELECTRON-ION-THERMOSTAT SYSTEM (eV)
  ---------------------------------------------------
% ion-electron   TOTEN  =       -24.010979  see above
  kinetic energy EKIN   =         0.005179
  kin. lattice  EKIN_LAT=         0.000000  (temperature   10.02 K)
  nose potential ES     =         0.000000
  nose kinetic   EPS    =         0.000000
  ---------------------------------------------------
  total energy   ETOTAL =       -24.005799 eV

  maximum distance moved by ions :      0.22E-03


 mean value of Nose-termostat <S>:     1.000 mean value of <T> :    24.990
 mean temperature <T/S>/<1/S>  :    24.990

    WAVPRE:  cpu time    0.0450: real time    0.0453
    FEWALD:  cpu time    0.0008: real time    0.0008
    ORTHCH:  cpu time    0.0082: real time    0.0082
 Prediction of Wavefunctions ALPHA= 2.093 BETA=-1.121
    POTLOK:  cpu time    0.1162: real time    0.1166
    EDDIAG:  cpu time    0.0321: real time    0.0321
     LOOP+:  cpu time    1.7883: real time    1.7919
    4ORBIT:  cpu time    0.0000: real time    0.0000

 total amount of memory used by VASP MPI-rank0    52221. kBytes
=======================================================================

   base      :      30000. kBytes
   nonl-proj :       2559. kBytes
   fftplans  :       6998. kBytes
   grid      :      10993. kBytes
   one-center:          6. kBytes
   wavefun   :       1665. kBytes
 
  
  
 General timing and accounting informations for this job:
 ========================================================
  
                  Total CPU time used (sec):       23.428
                            User time (sec):       21.795
                          System time (sec):        1.633
                         Elapsed time (sec):       23.734
  
                   Maximum memory used (kb):      168844.
                   Average memory used (kb):           0.
  
                          Minor page faults:       214805
                          Major page faults:            3
                 Voluntary context switches:           85
