 vasp.5.4.4.18Apr17-6-g9f103f2a35 (build Jul 09 2021 13:05:15) complex          
  
 executed on             LinuxIFC date 2021.11.04  19:03:07
 running on   16 total cores
 distrk:  each k-point on   16 cores,    1 groups
 distr:  one band on NCORES_PER_BAND=   4 cores,    4 groups


--------------------------------------------------------------------------------------------------------


 INCAR:
 POTCAR:    PAW_PBE H 15Jun2001                   
 POTCAR:    PAW_PBE C 08Apr2002                   
 POTCAR:    PAW_PBE H 15Jun2001                   
   VRHFIN =H: ultrasoft test                                                    
   LEXCH  = PE                                                                  
   EATOM  =    12.4884 eV,    0.9179 Ry                                         
                                                                                
   TITEL  = PAW_PBE H 15Jun2001                                                 
   LULTRA =        F    use ultrasoft PP ?                                      
   IUNSCR =        0    unscreen: 0-lin 1-nonlin 2-no                           
   RPACOR =    0.000    partial core radius                                     
   POMASS =    1.000; ZVAL   =    1.000    mass and valenz                      
   RCORE  =    1.100    outmost cutoff radius                                   
   RWIGS  =    0.700; RWIGS  =    0.370    wigner-seitz radius (au A)           
   ENMAX  =  250.000; ENMIN  =  200.000 eV                                      
   RCLOC  =    0.701    cutoff for local pot                                    
   LCOR   =        T    correct aug charges                                     
   LPAW   =        T    paw PP                                                  
   EAUG   =  400.000                                                            
   RMAX   =    1.123    core radius for proj-oper                               
   RAUG   =    1.200    factor for augmentation sphere                          
   RDEP   =    1.112    radius for radial grids                                 
   RDEPT  =    0.926    core radius for aug-charge                              
                                                                                
   Atomic configuration                                                         
    2 entries                                                                   
     n  l   j            E        occ.                                          
     1  0  0.50        -6.4927   1.0000                                         
     2  1  0.50        -3.4015   0.0000                                         
   Description                                                                  
     l       E           TYP  RCUT    TYP  RCUT                                 
     0     -6.4927494     23  1.100                                             
     0      6.8029130     23  1.100                                             
     1     -4.0817478     23  1.100                                             
  local pseudopotential read in
  atomic valenz-charges read in
  non local Contribution for L=           0  read in
    real space projection operators read in
  non local Contribution for L=           0  read in
    real space projection operators read in
  non local Contribution for L=           1  read in
    real space projection operators read in
    PAW grid and wavefunctions read in
 
   number of l-projection  operators is LMAX  =           3
   number of lm-projection operators is LMMAX =           5
 
 POTCAR:    PAW_PBE C 08Apr2002                   
   VRHFIN =C: s2p2                                                              
   LEXCH  = PE                                                                  
   EATOM  =   147.1560 eV,   10.8157 Ry                                         
                                                                                
   TITEL  = PAW_PBE C 08Apr2002                                                 
   LULTRA =        F    use ultrasoft PP ?                                      
   IUNSCR =        1    unscreen: 0-lin 1-nonlin 2-no                           
   RPACOR =    1.200    partial core radius                                     
   POMASS =   12.011; ZVAL   =    4.000    mass and valenz                      
   RCORE  =    1.500    outmost cutoff radius                                   
   RWIGS  =    1.630; RWIGS  =    0.863    wigner-seitz radius (au A)           
   ENMAX  =  400.000; ENMIN  =  300.000 eV                                      
   ICORE  =        2    local potential                                         
   LCOR   =        T    correct aug charges                                     
   LPAW   =        T    paw PP                                                  
   EAUG   =  644.873                                                            
   DEXC   =    0.000                                                            
   RMAX   =    1.529    core radius for proj-oper                               
   RAUG   =    1.300    factor for augmentation sphere                          
   RDEP   =    1.501    radius for radial grids                                 
   RDEPT  =    1.300    core radius for aug-charge                              
                                                                                
   Atomic configuration                                                         
    4 entries                                                                   
     n  l   j            E        occ.                                          
     1  0  0.50      -273.3789   2.0000                                         
     2  0  0.50       -13.7508   2.0000                                         
     2  1  0.50        -5.2854   2.0000                                         
     3  2  1.50        -5.4423   0.0000                                         
   Description                                                                  
     l       E           TYP  RCUT    TYP  RCUT                                 
     0    -13.7508458     23  1.200                                             
     0     -8.2022199     23  1.200                                             
     1     -5.2854383     23  1.500                                             
     1     34.0145650     23  1.500                                             
     2     -5.4423304      7  1.500                                             
  local pseudopotential read in
  partial core-charges read in
  partial kinetic energy density read in
  atomic valenz-charges read in
  non local Contribution for L=           0  read in
    real space projection operators read in
  non local Contribution for L=           0  read in
    real space projection operators read in
  non local Contribution for L=           1  read in
    real space projection operators read in
  non local Contribution for L=           1  read in
    real space projection operators read in
    PAW grid and wavefunctions read in
 
   number of l-projection  operators is LMAX  =           4
   number of lm-projection operators is LMMAX =           8
 
  PAW_PBE H 15Jun2001                   :
 energy of atom  1       EATOM=  -12.4884
 kinetic energy error for atom=    0.0098 (will be added to EATOM!!)
  PAW_PBE C 08Apr2002                   :
 energy of atom  2       EATOM= -147.1560
 kinetic energy error for atom=    0.0288 (will be added to EATOM!!)
 
 
 POSCAR:  H  C                                   
  positions in cartesian coordinates
  No initial velocities read in
 exchange correlation table for  LEXCH =        8
   RHO(1)=    0.500       N(1)  =     2000
   RHO(2)=  100.500       N(2)  =     4000
 


--------------------------------------------------------------------------------------------------------


 ion  position               nearest neighbor table
   1  0.538  0.407  0.361-   5 1.09
   2  0.394  0.480  0.438-   5 1.11
   3  0.552  0.566  0.442-   5 1.09
   4  0.528  0.416  0.539-   5 1.11
   5  0.503  0.467  0.445-   3 1.09   1 1.09   4 1.11   2 1.11
 

IMPORTANT INFORMATION: All symmetrisations will be switched off!
NOSYMM: (Re-)initialisation of all symmetry stuff for point group C_1.

 
 

Automatic generation of k-mesh.
 generate k-points for:    2    2    2
Space group operators:
 irot       det(A)        alpha          n_x          n_y          n_z        tau_x        tau_y        tau_z
    1     1.000000     0.000000     1.000000     0.000000     0.000000     0.000000     0.000000     0.000000
 
 Subroutine IBZKPT returns following result:
 ===========================================
 
 Found      4 irreducible k-points:
 
 Following reciprocal coordinates:
            Coordinates               Weight
  0.250000  0.250000  0.250000      2.000000
 -0.250000  0.250000  0.250000      2.000000
  0.250000 -0.250000  0.250000      2.000000
 -0.250000 -0.250000  0.250000      2.000000
 
 Following cartesian coordinates:
            Coordinates               Weight
  0.024827  0.025593  0.025722      2.000000
 -0.024827  0.024470  0.025332      2.000000
  0.024827 -0.024470  0.024645      2.000000
 -0.024827 -0.025593  0.024255      2.000000
 


--------------------------------------------------------------------------------------------------------




 Dimension of arrays:
   k-points           NKPTS =      4   k-points in BZ     NKDIM =      4   number of bands    NBANDS=      8
   number of dos      NEDOS =    301   number of ions     NIONS =      5
   non local maximal  LDIM  =      4   non local SUM 2l+1 LMDIM =      8
   total plane-waves  NPLWV = 343000
   max r-space proj   IRMAX =      1   max aug-charges    IRDMAX=   4222
   dimension x,y,z NGX =    70 NGY =   70 NGZ =   70
   dimension x,y,z NGXF=   140 NGYF=  140 NGZF=  140
   support grid    NGXF=   140 NGYF=  140 NGZF=  140
   ions per type =               4   1
   NGX,Y,Z   is equivalent  to a cutoff of  11.56, 11.65, 11.63 a.u.
   NGXF,Y,Z  is equivalent  to a cutoff of  23.11, 23.30, 23.26 a.u.

 SYSTEM =  unknown system                          
 POSCAR =   H  C                                   

 Startparameter for this run:
   NWRITE =      2    write-flag & timer
   PREC   = a         normal or accurate (medium, high low for compatibility)
   ISTART =      0    job   : 0-new  1-cont  2-samecut
   ICHARG =      2    charge: 1-file 2-atom 10-const
   ISPIN  =      1    spin polarized calculation?
   LNONCOLLINEAR =      F non collinear calculations
   LSORBIT =      F    spin-orbit coupling
   INIWAV =      1    electr: 0-lowe 1-rand  2-diag
   LASPH  =      F    aspherical Exc in radial PAW
   METAGGA=      F    non-selfconsistent MetaGGA calc.

 Electronic Relaxation 1
   ENCUT  =  400.0 eV  29.40 Ry    5.42 a.u.  16.42 16.29 16.32*2*pi/ulx,y,z
   ENINI  =  400.0     initial cutoff
   ENAUG  =  644.9 eV  augmentation charge cutoff
   NELM   =    120;   NELMIN=  4; NELMDL= -5     # of ELM steps 
   EDIFF  = 0.1E-05   stopping-criterion for ELM
   LREAL  =      F    real-space projection
   NLSPLINE    = F    spline interpolate recip. space projectors
   LCOMPAT=      F    compatible to vasp.4.4
   GGA_COMPAT  = T    GGA compatible to vasp.4.4-vasp.4.6
   LMAXPAW     = -100 max onsite density
   LMAXMIX     =    2 max onsite mixed and CHGCAR
   VOSKOWN=      0    Vosko Wilk Nusair interpolation
   ROPT   =    0.00000   0.00000
 Ionic relaxation
   EDIFFG = 0.1E-04   stopping-criterion for IOM
   NSW    =     10    number of steps for IOM
   NBLOCK =      1;   KBLOCK =     10    inner block; outer block 
   IBRION =      0    ionic relax: 0-MD 1-quasi-New 2-CG
   NFREE  =      0    steps in history (QN), initial steepest desc. (CG)
   ISIF   =      2    stress and relaxation
   IWAVPR =     12    prediction:  0-non 1-charg 2-wave 3-comb
   ISYM   =      0    0-nonsym 1-usesym 2-fastsym
   LCORR  =      T    Harris-Foulkes like correction to forces

   POTIM  = 0.5000    time-step for ionic-motion
   TEIN   =    0.0    initial temperature
   TEBEG  =    0.0;   TEEND  =   0.0 temperature during run
   SMASS  =  -3.00    Nose mass-parameter (am)
   estimated Nose-frequenzy (Omega)   =  0.10E-29 period in steps =****** mass=  -0.232E-26a.u.
   SCALEE = 1.0000    scale energy and forces
   NPACO  =    256;   APACO  = 16.0  distance and # of slots for P.C.
   PSTRESS=    0.0 pullay stress

  Mass of Ions in am
   POMASS =   1.00 12.01
  Ionic Valenz
   ZVAL   =   1.00  4.00
  Atomic Wigner-Seitz radii
   RWIGS  =  -1.00 -1.00
  virtual crystal weights 
   VCA    =   1.00  1.00
   NELECT =       8.0000    total number of electrons
   NUPDOWN=      -1.0000    fix difference up-down

 DOS related values:
   EMIN   =  10.00;   EMAX   =-10.00  energy-range for DOS
   EFERMI =   0.00
   ISMEAR =     0;   SIGMA  =   0.20  broadening in eV -4-tet -1-fermi 0-gaus

 Electronic relaxation 2 (details)
   IALGO  =     68    algorithm
   LDIAG  =      T    sub-space diagonalisation (order eigenvalues)
   LSUBROT=      F    optimize rotation matrix (better conditioning)
   TURBO    =      0    0=normal 1=particle mesh
   IRESTART =      0    0=no restart 2=restart with 2 vectors
   NREBOOT  =      0    no. of reboots
   NMIN     =      0    reboot dimension
   EREF     =   0.00    reference energy to select bands
   IMIX   =      4    mixing-type and parameters
     AMIX     =   0.40;   BMIX     =  1.00
     AMIX_MAG =   1.60;   BMIX_MAG =  1.00
     AMIN     =   0.10
     WC   =   100.;   INIMIX=   1;  MIXPRE=   1;  MAXMIX= -45

 Intra band minimization:
   WEIMIN = 0.0010     energy-eigenvalue tresh-hold
   EBREAK =  0.31E-07  absolut break condition
   DEPER  =   0.30     relativ break condition  

   TIME   =   0.40     timestep for ELM

  volume/ion in A,a.u.               =     201.23      1357.98
  Fermi-wavevector in a.u.,A,eV,Ry     =   0.326751  0.617469  1.452638  0.106766
  Thomas-Fermi vector in A             =   1.218883
 
 Write flags
   LWAVE        =      F    write WAVECAR
   LDOWNSAMPLE  =      F    k-point downsampling of WAVECAR
   LCHARG       =      F    write CHGCAR
   LVTOT        =      F    write LOCPOT, total local potential
   LVHAR        =      F    write LOCPOT, Hartree potential only
   LELF         =      F    write electronic localiz. function (ELF)
   LORBIT       =      0    0 simple, 1 ext, 2 COOP (PROOUT), +10 PAW based schemes


 Dipole corrections
   LMONO  =      F    monopole corrections only (constant potential shift)
   LDIPOL =      F    correct potential (dipole corrections)
   IDIPOL =      0    1-x, 2-y, 3-z, 4-all directions 
   EPSILON=  1.0000000 bulk dielectric constant

 Exchange correlation treatment:
   GGA     =    --    GGA type
   LEXCH   =     8    internal setting for exchange type
   VOSKOWN=      0    Vosko Wilk Nusair interpolation
   LHFCALC =     F    Hartree Fock is set to
   LHFONE  =     F    Hartree Fock one center treatment
   AEXX    =    0.0000 exact exchange contribution

 Linear response parameters
   LEPSILON=     F    determine dielectric tensor
   LRPA    =     F    only Hartree local field effects (RPA)
   LNABLA  =     F    use nabla operator in PAW spheres
   LVEL    =     F    velocity operator in full k-point grid
   LINTERFAST=   F  fast interpolation
   KINTER  =     0    interpolate to denser k-point grid
   CSHIFT  =0.1000    complex shift for real part using Kramers Kronig
   OMEGAMAX=  -1.0    maximum frequency
   DEG_THRESHOLD= 0.2000000E-02 threshold for treating states as degnerate
   RTIME   =   -0.100 relaxation time in fs
  (WPLASMAI=    0.000 imaginary part of plasma frequency in eV, 0.658/RTIME)
   DFIELD  = 0.0000000 0.0000000 0.0000000 field for delta impulse in time
 
 Orbital magnetization related:
   ORBITALMAG=     F  switch on orbital magnetization
   LCHIMAG   =     F  perturbation theory with respect to B field
   DQ        =  0.001000  dq finite difference perturbation B field
   LLRAUG    =     F  two centre corrections for induced B field



--------------------------------------------------------------------------------------------------------


 molecular dynamics for ions
   using a microcanonical ensemble
 charge density and potential will be updated during run
 non-spin polarized calculation
 RMM-DIIS sequential band-by-band and
  variant of blocked Davidson during initial phase
 perform sub-space diagonalisation
    before iterative eigenvector-optimisation
 modified Broyden-mixing scheme, WC =      100.0
 initial mixing is a Kerker type mixing with AMIX =  0.4000 and BMIX =      1.0000
 Hartree-type preconditioning will be used
 using additional bands            4
 reciprocal scheme for non local part
 use partial core corrections
 calculate Harris-corrections to forces 
   (improved forces if not selfconsistent)
 use gradient corrections 
 use of overlap-Matrix (Vanderbilt PP)
 Gauss-broadening in eV      SIGMA  =   0.20


--------------------------------------------------------------------------------------------------------


  energy-cutoff  :      400.00
  volume of cell :     1006.16
      direct lattice vectors                 reciprocal lattice vectors
    10.069560548  0.000000000  0.000000000     0.099309200  0.002246620  0.000780200
    -0.225941598  9.987482600  0.000000000     0.000000000  0.100125331  0.002153074
    -0.073731770 -0.215136549 10.004586216     0.000000000  0.000000000  0.099954159

  length of vectors
    10.069560548  9.990037953 10.007170702     0.099337672  0.100148478  0.099954159


 
 k-points in units of 2pi/SCALE and weight: read from INCAR                         
   0.02482730  0.02559299  0.02572186       0.250
  -0.02482730  0.02446968  0.02533176       0.250
   0.02482730 -0.02446968  0.02464532       0.250
  -0.02482730 -0.02559299  0.02425522       0.250
 
 k-points in reciprocal lattice and weights: read from INCAR                         
   0.25000000  0.25000000  0.25000000       0.250
  -0.25000000  0.25000000  0.25000000       0.250
   0.25000000 -0.25000000  0.25000000       0.250
  -0.25000000 -0.25000000  0.25000000       0.250
 
 position of ions in fractional coordinates (direct lattice) 
   0.53808704  0.40662389  0.36084256
   0.39414774  0.47966006  0.43783859
   0.55163831  0.56596083  0.44220001
   0.52819909  0.41593971  0.53866090
   0.50321666  0.46743280  0.44505559
 
 position of ions in cartesian coordinates  (Angst):
   5.29982123  3.98351856  3.61008051
   3.82823679  4.69640141  4.38039395
   5.39427703  5.55739060  4.42402808
   5.18503824  4.03830494  5.38907937
   4.92874335  4.57272919  4.45259701
 


--------------------------------------------------------------------------------------------------------


 k-point  1 :   0.2500 0.2500 0.2500  plane waves:   18298
 k-point  2 :  -0.2500 0.2500 0.2500  plane waves:   18264
 k-point  3 :   0.2500-0.2500 0.2500  plane waves:   18269
 k-point  4 :  -0.2500-0.2500 0.2500  plane waves:   18261

 maximum and minimum number of plane-waves per node :      4602     4547

 maximum number of plane-waves:     18298
 maximum index in each direction: 
   IXMAX=   16   IYMAX=   16   IZMAX=   16
   IXMIN=  -16   IYMIN=  -16   IZMIN=  -16


 parallel 3D FFT for wavefunctions:
    minimum data exchange during FFTs selected (reduces bandwidth)
 parallel 3D FFT for charge:
    minimum data exchange during FFTs selected (reduces bandwidth)


 total amount of memory used by VASP MPI-rank0    55403. kBytes
=======================================================================

   base      :      30000. kBytes
   nonl-proj :       2708. kBytes
   fftplans  :       8575. kBytes
   grid      :      13527. kBytes
   one-center:          6. kBytes
   wavefun   :        587. kBytes
 
     INWAV:  cpu time    0.0000: real time    0.0001
 Broyden mixing: mesh for mixing (old mesh)
   NGX = 33   NGY = 33   NGZ = 33
  (NGX  =140   NGY  =140   NGZ  =140)
  gives a total of  35937 points

 initial charge density was supplied:
 charge density of overlapping atoms calculated
 number of electron       8.0000000 magnetization 
 keeping initial charge density in first step


--------------------------------------------------------------------------------------------------------


 Maximum index for augmentation-charges          179 (set IRDMAX)


--------------------------------------------------------------------------------------------------------


 First call to EWALD:  gamma=   0.177
 Maximum number of real-space cells 3x 3x 3
 Maximum number of reciprocal cells 3x 3x 3

    FEWALD:  cpu time    0.0026: real time    0.0026


--------------------------------------- Iteration      1(   1)  ---------------------------------------


    POTLOK:  cpu time    0.1761: real time    0.1763
    SETDIJ:  cpu time    0.0030: real time    0.0031
     EDDAV:  cpu time    0.2235: real time    0.2241
       DOS:  cpu time    0.0012: real time    0.0012
    --------------------------------------------
      LOOP:  cpu time    0.4038: real time    0.4047

 eigenvalue-minimisations  :    96
 total energy-change (2. order) : 0.1591236E+02  (-0.2003864E+03)
 number of electron       8.0000000 magnetization 
 augmentation part        8.0000000 magnetization 

 Free energy of the ion-electron system (eV)
  ---------------------------------------------------
  alpha Z        PSCENC =         0.24076842
  Ewald energy   TEWEN  =       128.21669522
  -Hartree energ DENC   =      -243.83450352
  -exchange      EXHF   =         0.00000000
  -V(xc)+E(xc)   XCENC  =        21.99167487
  PAW double counting   =       117.05815612     -117.66307307
  entropy T*S    EENTRO =        -0.00000001
  eigenvalues    EBANDS =       -87.13911597
  atomic energy  EATOM  =       197.04175453
  Solvation  Ediel_sol  =         0.00000000
  ---------------------------------------------------
  free energy    TOTEN  =        15.91235660 eV

  energy without entropy =       15.91235661  energy(sigma->0) =       15.91235660


--------------------------------------------------------------------------------------------------------




--------------------------------------- Iteration      1(   2)  ---------------------------------------


     EDDAV:  cpu time    0.1819: real time    0.1822
       DOS:  cpu time    0.0004: real time    0.0004
    --------------------------------------------
      LOOP:  cpu time    0.1823: real time    0.1826

 eigenvalue-minimisations  :    72
 total energy-change (2. order) :-0.3895784E+02  (-0.3895784E+02)
 number of electron       8.0000000 magnetization 
 augmentation part        8.0000000 magnetization 

 Free energy of the ion-electron system (eV)
  ---------------------------------------------------
  alpha Z        PSCENC =         0.24076842
  Ewald energy   TEWEN  =       128.21669522
  -Hartree energ DENC   =      -243.83450352
  -exchange      EXHF   =         0.00000000
  -V(xc)+E(xc)   XCENC  =        21.99167487
  PAW double counting   =       117.05815612     -117.66307307
  entropy T*S    EENTRO =        -0.00000000
  eigenvalues    EBANDS =      -126.09695750
  atomic energy  EATOM  =       197.04175453
  Solvation  Ediel_sol  =         0.00000000
  ---------------------------------------------------
  free energy    TOTEN  =       -23.04548492 eV

  energy without entropy =      -23.04548492  energy(sigma->0) =      -23.04548492


--------------------------------------------------------------------------------------------------------




--------------------------------------- Iteration      1(   3)  ---------------------------------------


     EDDAV:  cpu time    0.1671: real time    0.1674
       DOS:  cpu time    0.0002: real time    0.0002
    --------------------------------------------
      LOOP:  cpu time    0.1673: real time    0.1676

 eigenvalue-minimisations  :    64
 total energy-change (2. order) :-0.4289457E+01  (-0.4289457E+01)
 number of electron       8.0000000 magnetization 
 augmentation part        8.0000000 magnetization 

 Free energy of the ion-electron system (eV)
  ---------------------------------------------------
  alpha Z        PSCENC =         0.24076842
  Ewald energy   TEWEN  =       128.21669522
  -Hartree energ DENC   =      -243.83450352
  -exchange      EXHF   =         0.00000000
  -V(xc)+E(xc)   XCENC  =        21.99167487
  PAW double counting   =       117.05815612     -117.66307307
  entropy T*S    EENTRO =        -0.00000000
  eigenvalues    EBANDS =      -130.38641419
  atomic energy  EATOM  =       197.04175453
  Solvation  Ediel_sol  =         0.00000000
  ---------------------------------------------------
  free energy    TOTEN  =       -27.33494161 eV

  energy without entropy =      -27.33494161  energy(sigma->0) =      -27.33494161


--------------------------------------------------------------------------------------------------------




--------------------------------------- Iteration      1(   4)  ---------------------------------------


     EDDAV:  cpu time    0.2801: real time    0.2809
       DOS:  cpu time    0.0006: real time    0.0006
    --------------------------------------------
      LOOP:  cpu time    0.2807: real time    0.2815

 eigenvalue-minimisations  :   128
 total energy-change (2. order) :-0.1696284E+00  (-0.1696284E+00)
 number of electron       8.0000000 magnetization 
 augmentation part        8.0000000 magnetization 

 Free energy of the ion-electron system (eV)
  ---------------------------------------------------
  alpha Z        PSCENC =         0.24076842
  Ewald energy   TEWEN  =       128.21669522
  -Hartree energ DENC   =      -243.83450352
  -exchange      EXHF   =         0.00000000
  -V(xc)+E(xc)   XCENC  =        21.99167487
  PAW double counting   =       117.05815612     -117.66307307
  entropy T*S    EENTRO =        -0.00000000
  eigenvalues    EBANDS =      -130.55604259
  atomic energy  EATOM  =       197.04175453
  Solvation  Ediel_sol  =         0.00000000
  ---------------------------------------------------
  free energy    TOTEN  =       -27.50457002 eV

  energy without entropy =      -27.50457002  energy(sigma->0) =      -27.50457002


--------------------------------------------------------------------------------------------------------




--------------------------------------- Iteration      1(   5)  ---------------------------------------


     EDDAV:  cpu time    0.2780: real time    0.2788
       DOS:  cpu time    0.0004: real time    0.0004
    CHARGE:  cpu time    0.0238: real time    0.0238
    MIXING:  cpu time    0.0054: real time    0.0054
    --------------------------------------------
      LOOP:  cpu time    0.3076: real time    0.3085

 eigenvalue-minimisations  :    96
 total energy-change (2. order) :-0.4976890E-04  (-0.4976904E-04)
 number of electron       8.0000003 magnetization 
 augmentation part        0.2240755 magnetization 

 Broyden mixing:
  rms(total) = 0.86584E+00    rms(broyden)= 0.86564E+00
  rms(prec ) = 0.12315E+01
  weight for this iteration     100.00

 Free energy of the ion-electron system (eV)
  ---------------------------------------------------
  alpha Z        PSCENC =         0.24076842
  Ewald energy   TEWEN  =       128.21669522
  -Hartree energ DENC   =      -243.83450352
  -exchange      EXHF   =         0.00000000
  -V(xc)+E(xc)   XCENC  =        21.99167487
  PAW double counting   =       117.05815612     -117.66307307
  entropy T*S    EENTRO =        -0.00000000
  eigenvalues    EBANDS =      -130.55609236
  atomic energy  EATOM  =       197.04175453
  Solvation  Ediel_sol  =         0.00000000
  ---------------------------------------------------
  free energy    TOTEN  =       -27.50461979 eV

  energy without entropy =      -27.50461979  energy(sigma->0) =      -27.50461979


--------------------------------------------------------------------------------------------------------




--------------------------------------- Iteration      1(   6)  ---------------------------------------


    POTLOK:  cpu time    0.1583: real time    0.1622
    SETDIJ:  cpu time    0.0027: real time    0.0027
    EDDIAG:  cpu time    0.0470: real time    0.0473
  RMM-DIIS:  cpu time    0.1768: real time    0.1772
    ORTHCH:  cpu time    0.0020: real time    0.0020
       DOS:  cpu time    0.0003: real time    0.0003
    CHARGE:  cpu time    0.0227: real time    0.0227
    MIXING:  cpu time    0.0059: real time    0.0059
    --------------------------------------------
      LOOP:  cpu time    0.4156: real time    0.4201

 eigenvalue-minimisations  :    64
 total energy-change (2. order) : 0.2854729E+01  (-0.5283076E+00)
 number of electron       8.0000003 magnetization 
 augmentation part        0.1975087 magnetization 

 Broyden mixing:
  rms(total) = 0.42684E+00    rms(broyden)= 0.42675E+00
  rms(prec ) = 0.55541E+00
  weight for this iteration     100.00

 eigenvalues of (default mixing * dielectric matrix)
  average eigenvalue GAMMA=   1.3031
  1.3031

 Free energy of the ion-electron system (eV)
  ---------------------------------------------------
  alpha Z        PSCENC =         0.24076842
  Ewald energy   TEWEN  =       128.21669522
  -Hartree energ DENC   =      -263.43260230
  -exchange      EXHF   =         0.00000000
  -V(xc)+E(xc)   XCENC  =        23.18123701
  PAW double counting   =       237.29475336     -238.07269189
  entropy T*S    EENTRO =        -0.00000000
  eigenvalues    EBANDS =      -109.11980551
  atomic energy  EATOM  =       197.04175453
  Solvation  Ediel_sol  =         0.00000000
  ---------------------------------------------------
  free energy    TOTEN  =       -24.64989117 eV

  energy without entropy =      -24.64989117  energy(sigma->0) =      -24.64989117


--------------------------------------------------------------------------------------------------------




--------------------------------------- Iteration      1(   7)  ---------------------------------------


    POTLOK:  cpu time    0.1659: real time    0.1662
    SETDIJ:  cpu time    0.0026: real time    0.0026
    EDDIAG:  cpu time    0.0452: real time    0.0452
  RMM-DIIS:  cpu time    0.1762: real time    0.1765
    ORTHCH:  cpu time    0.0019: real time    0.0019
       DOS:  cpu time    0.0002: real time    0.0002
    CHARGE:  cpu time    0.0206: real time    0.0206
    MIXING:  cpu time    0.0058: real time    0.0058
    --------------------------------------------
      LOOP:  cpu time    0.4184: real time    0.4191

 eigenvalue-minimisations  :    64
 total energy-change (2. order) : 0.4857826E+00  (-0.1183857E+00)
 number of electron       8.0000003 magnetization 
 augmentation part        0.1871405 magnetization 

 Broyden mixing:
  rms(total) = 0.22707E+00    rms(broyden)= 0.22702E+00
  rms(prec ) = 0.27531E+00
  weight for this iteration     100.00

 eigenvalues of (default mixing * dielectric matrix)
  average eigenvalue GAMMA=   1.8417
  1.4535  2.2299

 Free energy of the ion-electron system (eV)
  ---------------------------------------------------
  alpha Z        PSCENC =         0.24076842
  Ewald energy   TEWEN  =       128.21669522
  -Hartree energ DENC   =      -274.98823752
  -exchange      EXHF   =         0.00000000
  -V(xc)+E(xc)   XCENC  =        24.03145941
  PAW double counting   =       362.17137109     -362.98762381
  entropy T*S    EENTRO =        -0.00000000
  eigenvalues    EBANDS =       -97.89029588
  atomic energy  EATOM  =       197.04175453
  Solvation  Ediel_sol  =         0.00000000
  ---------------------------------------------------
  free energy    TOTEN  =       -24.16410854 eV

  energy without entropy =      -24.16410854  energy(sigma->0) =      -24.16410854


--------------------------------------------------------------------------------------------------------




--------------------------------------- Iteration      1(   8)  ---------------------------------------


    POTLOK:  cpu time    0.1635: real time    0.1645
    SETDIJ:  cpu time    0.0025: real time    0.0025
    EDDIAG:  cpu time    0.0425: real time    0.0426
  RMM-DIIS:  cpu time    0.1734: real time    0.1736
    ORTHCH:  cpu time    0.0019: real time    0.0019
       DOS:  cpu time    0.0003: real time    0.0003
    CHARGE:  cpu time    0.0198: real time    0.0198
    MIXING:  cpu time    0.0058: real time    0.0058
    --------------------------------------------
      LOOP:  cpu time    0.4097: real time    0.4110

 eigenvalue-minimisations  :    64
 total energy-change (2. order) : 0.1457977E+00  (-0.1620715E-01)
 number of electron       8.0000003 magnetization 
 augmentation part        0.1857728 magnetization 

 Broyden mixing:
  rms(total) = 0.22636E-01    rms(broyden)= 0.22615E-01
  rms(prec ) = 0.52813E-01
  weight for this iteration     100.00

 eigenvalues of (default mixing * dielectric matrix)
  average eigenvalue GAMMA=   1.5467
  2.2483  0.9876  1.4042

 Free energy of the ion-electron system (eV)
  ---------------------------------------------------
  alpha Z        PSCENC =         0.24076842
  Ewald energy   TEWEN  =       128.21669522
  -Hartree energ DENC   =      -280.38410556
  -exchange      EXHF   =         0.00000000
  -V(xc)+E(xc)   XCENC  =        24.56690176
  PAW double counting   =       469.82934390     -470.61374311
  entropy T*S    EENTRO =        -0.00000000
  eigenvalues    EBANDS =       -92.91592599
  atomic energy  EATOM  =       197.04175453
  Solvation  Ediel_sol  =         0.00000000
  ---------------------------------------------------
  free energy    TOTEN  =       -24.01831083 eV

  energy without entropy =      -24.01831083  energy(sigma->0) =      -24.01831083


--------------------------------------------------------------------------------------------------------




--------------------------------------- Iteration      1(   9)  ---------------------------------------


    POTLOK:  cpu time    0.1642: real time    0.1645
    SETDIJ:  cpu time    0.0026: real time    0.0026
    EDDIAG:  cpu time    0.0437: real time    0.0437
  RMM-DIIS:  cpu time    0.1778: real time    0.1780
    ORTHCH:  cpu time    0.0021: real time    0.0021
       DOS:  cpu time    0.0002: real time    0.0002
    CHARGE:  cpu time    0.0202: real time    0.0202
    MIXING:  cpu time    0.0059: real time    0.0059
    --------------------------------------------
      LOOP:  cpu time    0.4167: real time    0.4174

 eigenvalue-minimisations  :    64
 total energy-change (2. order) : 0.5617049E-02  (-0.1096109E-02)
 number of electron       8.0000003 magnetization 
 augmentation part        0.1852130 magnetization 

 Broyden mixing:
  rms(total) = 0.19501E-01    rms(broyden)= 0.19498E-01
  rms(prec ) = 0.40476E-01
  weight for this iteration     100.00

 eigenvalues of (default mixing * dielectric matrix)
  average eigenvalue GAMMA=   2.0948
  3.0940  2.9108  1.0022  1.3721

 Free energy of the ion-electron system (eV)
  ---------------------------------------------------
  alpha Z        PSCENC =         0.24076842
  Ewald energy   TEWEN  =       128.21669522
  -Hartree energ DENC   =      -281.63576648
  -exchange      EXHF   =         0.00000000
  -V(xc)+E(xc)   XCENC  =        24.63579728
  PAW double counting   =       472.99940879     -473.78648879
  entropy T*S    EENTRO =        -0.00000000
  eigenvalues    EBANDS =       -91.72486273
  atomic energy  EATOM  =       197.04175453
  Solvation  Ediel_sol  =         0.00000000
  ---------------------------------------------------
  free energy    TOTEN  =       -24.01269378 eV

  energy without entropy =      -24.01269378  energy(sigma->0) =      -24.01269378


--------------------------------------------------------------------------------------------------------




--------------------------------------- Iteration      1(  10)  ---------------------------------------


    POTLOK:  cpu time    0.1594: real time    0.1596
    SETDIJ:  cpu time    0.0035: real time    0.0035
    EDDIAG:  cpu time    0.0437: real time    0.0438
  RMM-DIIS:  cpu time    0.1744: real time    0.1749
    ORTHCH:  cpu time    0.0031: real time    0.0031
       DOS:  cpu time    0.0002: real time    0.0002
    CHARGE:  cpu time    0.0201: real time    0.0202
    MIXING:  cpu time    0.0062: real time    0.0062
    --------------------------------------------
      LOOP:  cpu time    0.4105: real time    0.4115

 eigenvalue-minimisations  :    64
 total energy-change (2. order) : 0.6200076E-02  (-0.2440555E-02)
 number of electron       8.0000003 magnetization 
 augmentation part        0.1841745 magnetization 

 Broyden mixing:
  rms(total) = 0.27638E-01    rms(broyden)= 0.27636E-01
  rms(prec ) = 0.35358E-01
  weight for this iteration     100.00

 eigenvalues of (default mixing * dielectric matrix)
  average eigenvalue GAMMA=   1.7843
  3.0758  2.4266  1.2195  1.2195  0.9800

 Free energy of the ion-electron system (eV)
  ---------------------------------------------------
  alpha Z        PSCENC =         0.24076842
  Ewald energy   TEWEN  =       128.21669522
  -Hartree energ DENC   =      -283.82685054
  -exchange      EXHF   =         0.00000000
  -V(xc)+E(xc)   XCENC  =        24.70593253
  PAW double counting   =       457.22959957     -458.02019475
  entropy T*S    EENTRO =        -0.00000000
  eigenvalues    EBANDS =       -89.59419868
  atomic energy  EATOM  =       197.04175453
  Solvation  Ediel_sol  =         0.00000000
  ---------------------------------------------------
  free energy    TOTEN  =       -24.00649370 eV

  energy without entropy =      -24.00649370  energy(sigma->0) =      -24.00649370


--------------------------------------------------------------------------------------------------------




--------------------------------------- Iteration      1(  11)  ---------------------------------------


    POTLOK:  cpu time    0.1553: real time    0.1558
    SETDIJ:  cpu time    0.0030: real time    0.0030
    EDDIAG:  cpu time    0.0423: real time    0.0425
  RMM-DIIS:  cpu time    0.1684: real time    0.1691
    ORTHCH:  cpu time    0.0018: real time    0.0018
       DOS:  cpu time    0.0002: real time    0.0002
    CHARGE:  cpu time    0.0197: real time    0.0198
    MIXING:  cpu time    0.0061: real time    0.0061
    --------------------------------------------
      LOOP:  cpu time    0.3967: real time    0.3982

 eigenvalue-minimisations  :    64
 total energy-change (2. order) :-0.7364858E-03  (-0.8100349E-03)
 number of electron       8.0000003 magnetization 
 augmentation part        0.1845399 magnetization 

 Broyden mixing:
  rms(total) = 0.82946E-02    rms(broyden)= 0.82915E-02
  rms(prec ) = 0.14169E-01
  weight for this iteration     100.00

 eigenvalues of (default mixing * dielectric matrix)
  average eigenvalue GAMMA=   2.2868
  4.8905  3.0962  2.4310  1.2810  1.0109  1.0109

 Free energy of the ion-electron system (eV)
  ---------------------------------------------------
  alpha Z        PSCENC =         0.24076842
  Ewald energy   TEWEN  =       128.21669522
  -Hartree energ DENC   =      -283.71783158
  -exchange      EXHF   =         0.00000000
  -V(xc)+E(xc)   XCENC  =        24.71992889
  PAW double counting   =       466.30359761     -467.08668289
  entropy T*S    EENTRO =        -0.00000000
  eigenvalues    EBANDS =       -89.72546039
  atomic energy  EATOM  =       197.04175453
  Solvation  Ediel_sol  =         0.00000000
  ---------------------------------------------------
  free energy    TOTEN  =       -24.00723019 eV

  energy without entropy =      -24.00723019  energy(sigma->0) =      -24.00723019


--------------------------------------------------------------------------------------------------------




--------------------------------------- Iteration      1(  12)  ---------------------------------------


    POTLOK:  cpu time    0.1447: real time    0.1478
    SETDIJ:  cpu time    0.0029: real time    0.0029
    EDDIAG:  cpu time    0.0419: real time    0.0421
  RMM-DIIS:  cpu time    0.1731: real time    0.1761
    ORTHCH:  cpu time    0.0018: real time    0.0018
       DOS:  cpu time    0.0002: real time    0.0002
    CHARGE:  cpu time    0.0203: real time    0.0204
    MIXING:  cpu time    0.0063: real time    0.0063
    --------------------------------------------
      LOOP:  cpu time    0.3912: real time    0.3976

 eigenvalue-minimisations  :    64
 total energy-change (2. order) :-0.9601255E-02  (-0.3515757E-03)
 number of electron       8.0000003 magnetization 
 augmentation part        0.1847573 magnetization 

 Broyden mixing:
  rms(total) = 0.12434E-01    rms(broyden)= 0.12433E-01
  rms(prec ) = 0.16297E-01
  weight for this iteration     100.00

 eigenvalues of (default mixing * dielectric matrix)
  average eigenvalue GAMMA=   2.0217
  4.8440  2.9496  2.4317  1.2367  1.0033  1.0033  0.6835

 Free energy of the ion-electron system (eV)
  ---------------------------------------------------
  alpha Z        PSCENC =         0.24076842
  Ewald energy   TEWEN  =       128.21669522
  -Hartree energ DENC   =      -283.91963813
  -exchange      EXHF   =         0.00000000
  -V(xc)+E(xc)   XCENC  =        24.71169061
  PAW double counting   =       463.32253785     -464.10452017
  entropy T*S    EENTRO =        -0.00000000
  eigenvalues    EBANDS =       -89.52611977
  atomic energy  EATOM  =       197.04175453
  Solvation  Ediel_sol  =         0.00000000
  ---------------------------------------------------
  free energy    TOTEN  =       -24.01683145 eV

  energy without entropy =      -24.01683145  energy(sigma->0) =      -24.01683145


--------------------------------------------------------------------------------------------------------




--------------------------------------- Iteration      1(  13)  ---------------------------------------


    POTLOK:  cpu time    0.1472: real time    0.1482
    SETDIJ:  cpu time    0.0027: real time    0.0027
    EDDIAG:  cpu time    0.0427: real time    0.0430
  RMM-DIIS:  cpu time    0.1721: real time    0.1728
    ORTHCH:  cpu time    0.0017: real time    0.0017
       DOS:  cpu time    0.0002: real time    0.0002
    CHARGE:  cpu time    0.0200: real time    0.0201
    MIXING:  cpu time    0.0068: real time    0.0069
    --------------------------------------------
      LOOP:  cpu time    0.3933: real time    0.3955

 eigenvalue-minimisations  :    64
 total energy-change (2. order) :-0.4811785E-03  (-0.9099787E-04)
 number of electron       8.0000003 magnetization 
 augmentation part        0.1845272 magnetization 

 Broyden mixing:
  rms(total) = 0.52204E-02    rms(broyden)= 0.52202E-02
  rms(prec ) = 0.70587E-02
  weight for this iteration     100.00

 eigenvalues of (default mixing * dielectric matrix)
  average eigenvalue GAMMA=   2.4540
  6.2352  4.1870  2.5251  2.3908  1.2105  1.2105  0.9983  0.8744

 Free energy of the ion-electron system (eV)
  ---------------------------------------------------
  alpha Z        PSCENC =         0.24076842
  Ewald energy   TEWEN  =       128.21669522
  -Hartree energ DENC   =      -284.09802757
  -exchange      EXHF   =         0.00000000
  -V(xc)+E(xc)   XCENC  =        24.71674935
  PAW double counting   =       463.13807508     -463.92236945
  entropy T*S    EENTRO =        -0.00000000
  eigenvalues    EBANDS =       -89.35095821
  atomic energy  EATOM  =       197.04175453
  Solvation  Ediel_sol  =         0.00000000
  ---------------------------------------------------
  free energy    TOTEN  =       -24.01731262 eV

  energy without entropy =      -24.01731262  energy(sigma->0) =      -24.01731262


--------------------------------------------------------------------------------------------------------




--------------------------------------- Iteration      1(  14)  ---------------------------------------


    POTLOK:  cpu time    0.1437: real time    0.1514
    SETDIJ:  cpu time    0.0029: real time    0.0029
    EDDIAG:  cpu time    0.0419: real time    0.0420
  RMM-DIIS:  cpu time    0.1714: real time    0.1721
    ORTHCH:  cpu time    0.0018: real time    0.0018
       DOS:  cpu time    0.0002: real time    0.0002
    CHARGE:  cpu time    0.0193: real time    0.0194
    MIXING:  cpu time    0.0065: real time    0.0065
    --------------------------------------------
      LOOP:  cpu time    0.3875: real time    0.3963

 eigenvalue-minimisations  :    64
 total energy-change (2. order) :-0.2841800E-02  (-0.1619195E-03)
 number of electron       8.0000003 magnetization 
 augmentation part        0.1843629 magnetization 

 Broyden mixing:
  rms(total) = 0.38381E-02    rms(broyden)= 0.38364E-02
  rms(prec ) = 0.49770E-02
  weight for this iteration     100.00

 eigenvalues of (default mixing * dielectric matrix)
  average eigenvalue GAMMA=   2.3487
  6.5265  4.1374  2.5470  2.4088  1.2040  1.2040  0.9266  0.9793  1.2051

 Free energy of the ion-electron system (eV)
  ---------------------------------------------------
  alpha Z        PSCENC =         0.24076842
  Ewald energy   TEWEN  =       128.21669522
  -Hartree energ DENC   =      -284.12244205
  -exchange      EXHF   =         0.00000000
  -V(xc)+E(xc)   XCENC  =        24.70756254
  PAW double counting   =       462.29659003     -463.08259176
  entropy T*S    EENTRO =        -0.00000000
  eigenvalues    EBANDS =       -89.31849136
  atomic energy  EATOM  =       197.04175453
  Solvation  Ediel_sol  =         0.00000000
  ---------------------------------------------------
  free energy    TOTEN  =       -24.02015442 eV

  energy without entropy =      -24.02015442  energy(sigma->0) =      -24.02015442


--------------------------------------------------------------------------------------------------------




--------------------------------------- Iteration      1(  15)  ---------------------------------------


    POTLOK:  cpu time    0.1427: real time    0.1454
    SETDIJ:  cpu time    0.0028: real time    0.0028
    EDDIAG:  cpu time    0.0414: real time    0.0415
  RMM-DIIS:  cpu time    0.1710: real time    0.1721
    ORTHCH:  cpu time    0.0017: real time    0.0017
       DOS:  cpu time    0.0002: real time    0.0002
    CHARGE:  cpu time    0.0199: real time    0.0199
    MIXING:  cpu time    0.0070: real time    0.0071
    --------------------------------------------
      LOOP:  cpu time    0.3866: real time    0.3907

 eigenvalue-minimisations  :    64
 total energy-change (2. order) :-0.2057571E-03  (-0.6353947E-05)
 number of electron       8.0000003 magnetization 
 augmentation part        0.1843483 magnetization 

 Broyden mixing:
  rms(total) = 0.17383E-02    rms(broyden)= 0.17382E-02
  rms(prec ) = 0.22712E-02
  weight for this iteration     100.00

 eigenvalues of (default mixing * dielectric matrix)
  average eigenvalue GAMMA=   2.5650
  7.6141  4.9170  2.9814  2.5873  2.1253  1.2660  1.2660  1.0105  0.9846  0.8981

 Free energy of the ion-electron system (eV)
  ---------------------------------------------------
  alpha Z        PSCENC =         0.24076842
  Ewald energy   TEWEN  =       128.21669522
  -Hartree energ DENC   =      -284.08755588
  -exchange      EXHF   =         0.00000000
  -V(xc)+E(xc)   XCENC  =        24.70670433
  PAW double counting   =       462.48670287     -463.27185202
  entropy T*S    EENTRO =        -0.00000000
  eigenvalues    EBANDS =       -89.35357765
  atomic energy  EATOM  =       197.04175453
  Solvation  Ediel_sol  =         0.00000000
  ---------------------------------------------------
  free energy    TOTEN  =       -24.02036018 eV

  energy without entropy =      -24.02036018  energy(sigma->0) =      -24.02036018


--------------------------------------------------------------------------------------------------------




--------------------------------------- Iteration      1(  16)  ---------------------------------------


    POTLOK:  cpu time    0.1444: real time    0.1461
    SETDIJ:  cpu time    0.0027: real time    0.0027
    EDDIAG:  cpu time    0.0416: real time    0.0418
  RMM-DIIS:  cpu time    0.1687: real time    0.1694
    ORTHCH:  cpu time    0.0019: real time    0.0026
       DOS:  cpu time    0.0002: real time    0.0002
    CHARGE:  cpu time    0.0199: real time    0.0199
    MIXING:  cpu time    0.0069: real time    0.0069
    --------------------------------------------
      LOOP:  cpu time    0.3863: real time    0.3897

 eigenvalue-minimisations  :    64
 total energy-change (2. order) :-0.2080719E-03  (-0.1726932E-04)
 number of electron       8.0000003 magnetization 
 augmentation part        0.1844232 magnetization 

 Broyden mixing:
  rms(total) = 0.13002E-02    rms(broyden)= 0.12997E-02
  rms(prec ) = 0.17268E-02
  weight for this iteration     100.00

 eigenvalues of (default mixing * dielectric matrix)
  average eigenvalue GAMMA=   2.4885
  7.7721  4.8492  3.5032  2.4077  2.3106  1.2723  1.2723  1.0575  1.0575  0.9358
  0.9358

 Free energy of the ion-electron system (eV)
  ---------------------------------------------------
  alpha Z        PSCENC =         0.24076842
  Ewald energy   TEWEN  =       128.21669522
  -Hartree energ DENC   =      -284.04867737
  -exchange      EXHF   =         0.00000000
  -V(xc)+E(xc)   XCENC  =        24.70581029
  PAW double counting   =       462.56301517     -463.34746659
  entropy T*S    EENTRO =        -0.00000000
  eigenvalues    EBANDS =       -89.39246792
  atomic energy  EATOM  =       197.04175453
  Solvation  Ediel_sol  =         0.00000000
  ---------------------------------------------------
  free energy    TOTEN  =       -24.02056825 eV

  energy without entropy =      -24.02056825  energy(sigma->0) =      -24.02056825


--------------------------------------------------------------------------------------------------------




--------------------------------------- Iteration      1(  17)  ---------------------------------------


    POTLOK:  cpu time    0.1472: real time    0.1480
    SETDIJ:  cpu time    0.0029: real time    0.0028
    EDDIAG:  cpu time    0.0434: real time    0.0436
  RMM-DIIS:  cpu time    0.1751: real time    0.1758
    ORTHCH:  cpu time    0.0018: real time    0.0018
       DOS:  cpu time    0.0002: real time    0.0002
    CHARGE:  cpu time    0.0197: real time    0.0197
    MIXING:  cpu time    0.0070: real time    0.0070
    --------------------------------------------
      LOOP:  cpu time    0.3971: real time    0.3990

 eigenvalue-minimisations  :    64
 total energy-change (2. order) :-0.2079907E-04  (-0.3562175E-05)
 number of electron       8.0000003 magnetization 
 augmentation part        0.1843855 magnetization 

 Broyden mixing:
  rms(total) = 0.19170E-03    rms(broyden)= 0.19163E-03
  rms(prec ) = 0.29247E-03
  weight for this iteration     100.00

 eigenvalues of (default mixing * dielectric matrix)
  average eigenvalue GAMMA=   2.5854
  8.3931  5.2391  3.9144  2.6153  2.4684  1.8905  1.3123  1.3123  1.0439  1.0040
  0.9373  0.8941

 Free energy of the ion-electron system (eV)
  ---------------------------------------------------
  alpha Z        PSCENC =         0.24076842
  Ewald energy   TEWEN  =       128.21669522
  -Hartree energ DENC   =      -284.09727191
  -exchange      EXHF   =         0.00000000
  -V(xc)+E(xc)   XCENC  =        24.70803927
  PAW double counting   =       462.55982779     -463.34472598
  entropy T*S    EENTRO =        -0.00000000
  eigenvalues    EBANDS =       -89.34567639
  atomic energy  EATOM  =       197.04175453
  Solvation  Ediel_sol  =         0.00000000
  ---------------------------------------------------
  free energy    TOTEN  =       -24.02058905 eV

  energy without entropy =      -24.02058905  energy(sigma->0) =      -24.02058905


--------------------------------------------------------------------------------------------------------




--------------------------------------- Iteration      1(  18)  ---------------------------------------


    POTLOK:  cpu time    0.1496: real time    0.1505
    SETDIJ:  cpu time    0.0026: real time    0.0026
    EDDIAG:  cpu time    0.0418: real time    0.0419
  RMM-DIIS:  cpu time    0.1356: real time    0.1376
    ORTHCH:  cpu time    0.0018: real time    0.0018
       DOS:  cpu time    0.0002: real time    0.0002
    CHARGE:  cpu time    0.0191: real time    0.0192
    MIXING:  cpu time    0.0078: real time    0.0078
    --------------------------------------------
      LOOP:  cpu time    0.3584: real time    0.3615

 eigenvalue-minimisations  :    48
 total energy-change (2. order) :-0.1396142E-04  (-0.1048289E-06)
 number of electron       8.0000003 magnetization 
 augmentation part        0.1843844 magnetization 

 Broyden mixing:
  rms(total) = 0.74331E-04    rms(broyden)= 0.74288E-04
  rms(prec ) = 0.11437E-03
  weight for this iteration     100.00

 eigenvalues of (default mixing * dielectric matrix)
  average eigenvalue GAMMA=   2.5853
  8.4762  5.4125  3.8242  3.2398  2.4933  2.2436  1.3019  1.3019  1.2905  1.1535
  0.8961  0.9874  0.9874

 Free energy of the ion-electron system (eV)
  ---------------------------------------------------
  alpha Z        PSCENC =         0.24076842
  Ewald energy   TEWEN  =       128.21669522
  -Hartree energ DENC   =      -284.08711058
  -exchange      EXHF   =         0.00000000
  -V(xc)+E(xc)   XCENC  =        24.70730928
  PAW double counting   =       462.47357324     -463.25842946
  entropy T*S    EENTRO =        -0.00000000
  eigenvalues    EBANDS =       -89.35516366
  atomic energy  EATOM  =       197.04175453
  Solvation  Ediel_sol  =         0.00000000
  ---------------------------------------------------
  free energy    TOTEN  =       -24.02060301 eV

  energy without entropy =      -24.02060301  energy(sigma->0) =      -24.02060301


--------------------------------------------------------------------------------------------------------




--------------------------------------- Iteration      1(  19)  ---------------------------------------


    POTLOK:  cpu time    0.1507: real time    0.1519
    SETDIJ:  cpu time    0.0030: real time    0.0030
    EDDIAG:  cpu time    0.0412: real time    0.0415
  RMM-DIIS:  cpu time    0.1370: real time    0.1375
    ORTHCH:  cpu time    0.0019: real time    0.0019
       DOS:  cpu time    0.0002: real time    0.0002
    CHARGE:  cpu time    0.0191: real time    0.0191
    MIXING:  cpu time    0.0078: real time    0.0078
    --------------------------------------------
      LOOP:  cpu time    0.3608: real time    0.3629

 eigenvalue-minimisations  :    48
 total energy-change (2. order) :-0.2739100E-05  (-0.2893569E-07)
 number of electron       8.0000003 magnetization 
 augmentation part        0.1843843 magnetization 

 Broyden mixing:
  rms(total) = 0.73882E-04    rms(broyden)= 0.73864E-04
  rms(prec ) = 0.95034E-04
  weight for this iteration     100.00

 eigenvalues of (default mixing * dielectric matrix)
  average eigenvalue GAMMA=   2.5565
  8.5015  5.5243  4.0156  3.2236  2.5126  2.5126  2.0817  1.2958  1.2958  1.0349
  0.9791  0.9791  0.9170  0.9170

 Free energy of the ion-electron system (eV)
  ---------------------------------------------------
  alpha Z        PSCENC =         0.24076842
  Ewald energy   TEWEN  =       128.21669522
  -Hartree energ DENC   =      -284.08376933
  -exchange      EXHF   =         0.00000000
  -V(xc)+E(xc)   XCENC  =        24.70704655
  PAW double counting   =       462.45545219     -463.24029925
  entropy T*S    EENTRO =        -0.00000000
  eigenvalues    EBANDS =       -89.35825408
  atomic energy  EATOM  =       197.04175453
  Solvation  Ediel_sol  =         0.00000000
  ---------------------------------------------------
  free energy    TOTEN  =       -24.02060575 eV

  energy without entropy =      -24.02060575  energy(sigma->0) =      -24.02060575


--------------------------------------------------------------------------------------------------------




--------------------------------------- Iteration      1(  20)  ---------------------------------------


    POTLOK:  cpu time    0.1574: real time    0.1584
    SETDIJ:  cpu time    0.0031: real time    0.0031
    EDDIAG:  cpu time    0.0429: real time    0.0431
  RMM-DIIS:  cpu time    0.1404: real time    0.1409
    ORTHCH:  cpu time    0.0023: real time    0.0023
       DOS:  cpu time    0.0002: real time    0.0002
    CHARGE:  cpu time    0.0202: real time    0.0203
    MIXING:  cpu time    0.0078: real time    0.0078
    --------------------------------------------
      LOOP:  cpu time    0.3743: real time    0.3761

 eigenvalue-minimisations  :    44
 total energy-change (2. order) :-0.1408746E-05  (-0.7539432E-08)
 number of electron       8.0000003 magnetization 
 augmentation part        0.1843857 magnetization 

 Broyden mixing:
  rms(total) = 0.23118E-04    rms(broyden)= 0.23113E-04
  rms(prec ) = 0.27457E-04
  weight for this iteration     100.00

 eigenvalues of (default mixing * dielectric matrix)
  average eigenvalue GAMMA=   2.4921
  8.5211  5.5593  4.1385  3.5432  2.5228  2.4464  2.0843  1.2939  1.2939  1.0434
  1.0434  1.0574  0.8898  0.9717  0.9717

 Free energy of the ion-electron system (eV)
  ---------------------------------------------------
  alpha Z        PSCENC =         0.24076842
  Ewald energy   TEWEN  =       128.21669522
  -Hartree energ DENC   =      -284.08259081
  -exchange      EXHF   =         0.00000000
  -V(xc)+E(xc)   XCENC  =        24.70701800
  PAW double counting   =       462.46461722     -463.24943813
  entropy T*S    EENTRO =        -0.00000000
  eigenvalues    EBANDS =       -89.35943162
  atomic energy  EATOM  =       197.04175453
  Solvation  Ediel_sol  =         0.00000000
  ---------------------------------------------------
  free energy    TOTEN  =       -24.02060716 eV

  energy without entropy =      -24.02060716  energy(sigma->0) =      -24.02060716


--------------------------------------------------------------------------------------------------------




--------------------------------------- Iteration      1(  21)  ---------------------------------------


    POTLOK:  cpu time    0.1567: real time    0.1576
    SETDIJ:  cpu time    0.0031: real time    0.0031
    EDDIAG:  cpu time    0.0419: real time    0.0422
  RMM-DIIS:  cpu time    0.1171: real time    0.1181
    ORTHCH:  cpu time    0.0017: real time    0.0017
       DOS:  cpu time    0.0002: real time    0.0002
    --------------------------------------------
      LOOP:  cpu time    0.3206: real time    0.3228

 eigenvalue-minimisations  :    36
 total energy-change (2. order) :-0.2544843E-06  (-0.1744802E-08)
 number of electron       8.0000003 magnetization 
 augmentation part        0.1843857 magnetization 

 Free energy of the ion-electron system (eV)
  ---------------------------------------------------
  alpha Z        PSCENC =         0.24076842
  Ewald energy   TEWEN  =       128.21669522
  -Hartree energ DENC   =      -284.08222410
  -exchange      EXHF   =         0.00000000
  -V(xc)+E(xc)   XCENC  =        24.70700297
  PAW double counting   =       462.46692928     -463.25174609
  entropy T*S    EENTRO =        -0.00000000
  eigenvalues    EBANDS =       -89.35978765
  atomic energy  EATOM  =       197.04175453
  Solvation  Ediel_sol  =         0.00000000
  ---------------------------------------------------
  free energy    TOTEN  =       -24.02060742 eV

  energy without entropy =      -24.02060742  energy(sigma->0) =      -24.02060742


--------------------------------------------------------------------------------------------------------




 average (electrostatic) potential at core
  the test charge radii are     0.5201  0.6991
  (the norm of the test charge is              1.0000)
       1 -41.5193       2 -41.4024       3 -41.5572       4 -41.4164       5 -57.9818
 
 
 
 E-fermi :  -8.2202     XC(G=0):  -0.6992     alpha+bet : -0.2094


 k-point     1 :       0.2500    0.2500    0.2500
  band No.  band energies     occupation 
      1     -16.8594      2.00000
      2      -9.3653      2.00000
      3      -9.2841      2.00000
      4      -9.1714      2.00000
      5      -0.3152      0.00000
      6       0.5517      0.00000
      7       0.6536      0.00000
      8       0.6804      0.00000

 k-point     2 :      -0.2500    0.2500    0.2500
  band No.  band energies     occupation 
      1     -16.8594      2.00000
      2      -9.3651      2.00000
      3      -9.2840      2.00000
      4      -9.1713      2.00000
      5      -0.3210      0.00000
      6       0.5584      0.00000
      7       0.6658      0.00000
      8       0.6980      0.00000

 k-point     3 :       0.2500   -0.2500    0.2500
  band No.  band energies     occupation 
      1     -16.8593      2.00000
      2      -9.3652      2.00000
      3      -9.2841      2.00000
      4      -9.1713      2.00000
      5      -0.3232      0.00000
      6       0.5598      0.00000
      7       0.6736      0.00000
      8       0.7064      0.00000

 k-point     4 :      -0.2500   -0.2500    0.2500
  band No.  band energies     occupation 
      1     -16.8594      2.00000
      2      -9.3651      2.00000
      3      -9.2840      2.00000
      4      -9.1712      2.00000
      5      -0.3206      0.00000
      6       0.5593      0.00000
      7       0.6646      0.00000
      8       0.7003      0.00000


--------------------------------------------------------------------------------------------------------


 soft charge-density along one line, spin component           1
         0         1         2         3         4         5         6         7         8         9
 total charge-density along one line
 
 pseudopotential strength for first ion, spin component:           1
 -2.341  -4.034  -0.001  -0.001   0.001
 -4.034  -6.865  -0.003  -0.004   0.002
 -0.001  -0.003  -0.337   0.002  -0.001
 -0.001  -0.004   0.002  -0.336  -0.001
  0.001   0.002  -0.001  -0.001  -0.338
 total augmentation occupancy for first ion, spin component:           1
  3.561  -0.641   0.235   0.335  -0.148
 -0.641   0.130  -0.043  -0.062   0.027
  0.235  -0.043   0.022   0.018  -0.008
  0.335  -0.062   0.018   0.036  -0.012
 -0.148   0.027  -0.008  -0.012   0.014


------------------------ aborting loop because EDIFF is reached ----------------------------------------


    CHARGE:  cpu time    0.0197: real time    0.0198
    FORLOC:  cpu time    0.0161: real time    0.0161
    FORNL :  cpu time    0.0224: real time    0.0225
    STRESS:  cpu time    0.1793: real time    0.1798
    FORCOR:  cpu time    0.1553: real time    0.1566
    FORHAR:  cpu time    0.0509: real time    0.0511
    MIXING:  cpu time    0.0075: real time    0.0075
    OFIELD:  cpu time    0.0001: real time    0.0001

  FORCE on cell =-STRESS in cart. coord.  units (eV):
  Direction    XX          YY          ZZ          XY          YZ          ZX
  --------------------------------------------------------------------------------------
  Alpha Z     0.24077     0.24077     0.24077
  Ewald      41.90611    44.67064    41.63993    -1.26440    -1.36080    -1.09182
  Hartree    94.23193    95.30206    94.54877    -0.71847    -0.73802    -0.28813
  E(xc)     -27.17102   -27.16901   -27.17909    -0.00746    -0.00859    -0.00346
  Local    -195.11756  -198.35435  -195.24576     1.91539     2.02326     1.13537
  n-local   -15.78855   -15.84933   -15.81572    -0.01934    -0.03132     0.01699
  augment     0.11934     0.11370     0.11929    -0.00006    -0.00011     0.00206
  Kinetic   100.79699   100.73674   101.21092     0.36253     0.44318     0.14861
  Fock        0.00000     0.00000     0.00000     0.00000     0.00000     0.00000
  -------------------------------------------------------------------------------------
  Total      -0.78198    -0.30879    -0.48089     0.26819     0.32761    -0.08037
  in kB      -1.24520    -0.49171    -0.76575     0.42706     0.52167    -0.12799
  external pressure =       -0.83 kB  Pullay stress =        0.00 kB

  kinetic pressure (ideal gas correction) =      0.00 kB
  total pressure  =     -0.83 kB
  Total+kin.    -1.245      -0.492      -0.766       0.427       0.522      -0.128

 VOLUME and BASIS-vectors are now :
 -----------------------------------------------------------------------------
  energy-cutoff  :      400.00
  volume of cell :     1006.16
      direct lattice vectors                 reciprocal lattice vectors
    10.069560548  0.000000000  0.000000000     0.099309200  0.002246620  0.000780200
    -0.225941598  9.987482600  0.000000000     0.000000000  0.100125331  0.002153074
    -0.073731770 -0.215136549 10.004586216     0.000000000  0.000000000  0.099954159

  length of vectors
    10.069560548  9.990037953 10.007170702     0.099337672  0.100148478  0.099954159


 FORCES acting on ions
    electron-ion (+dipol)            ewald-force                    non-local-force                 convergence-correction
 -----------------------------------------------------------------------------------------------
   -.180E+02 0.286E+02 0.408E+02   0.198E+02 -.316E+02 -.452E+02   -.190E+01 0.300E+01 0.427E+01   0.688E-05 -.683E-05 -.146E-04
   0.518E+02 -.582E+01 0.335E+01   -.567E+02 0.631E+01 -.367E+01   0.527E+01 -.607E+00 0.341E+00   -.254E-04 0.168E-05 -.471E-05
   -.227E+02 -.480E+02 0.132E+01   0.252E+02 0.533E+02 -.138E+01   -.239E+01 -.507E+01 0.172E+00   0.133E-04 0.187E-04 -.226E-05
   -.121E+02 0.252E+02 -.442E+02   0.132E+02 -.275E+02 0.484E+02   -.123E+01 0.260E+01 -.449E+01   0.819E-05 -.951E-05 0.181E-04
   0.134E+01 0.329E+00 -.162E+01   -.159E+01 -.453E+00 0.186E+01   -.143E+00 -.157E+00 0.347E-01   0.116E-04 0.486E-06 -.238E-04
 -----------------------------------------------------------------------------------------------
   0.401E+00 0.248E+00 -.324E+00   -.888E-14 0.000E+00 -.711E-14   -.401E+00 -.248E+00 0.324E+00   0.146E-04 0.450E-05 -.273E-04
 
 
 POSITION                                       TOTAL-FORCE (eV/Angst)
 -----------------------------------------------------------------------------------
      5.29982      3.98352      3.61008        -0.047152     -0.076124     -0.154683
      3.82824      4.69640      4.38039         0.391309     -0.122499      0.011888
      5.39428      5.55739      4.42403         0.146769      0.198781      0.111027
      5.18504      4.03830      5.38908        -0.094002      0.281519     -0.241569
      4.92874      4.57273      4.45260        -0.397360     -0.282104      0.273227
 -----------------------------------------------------------------------------------
    total drift:                               -0.000435     -0.000428     -0.000110


--------------------------------------------------------------------------------------------------------



  FREE ENERGIE OF THE ION-ELECTRON SYSTEM (eV)
  ---------------------------------------------------
  free  energy   TOTEN  =       -24.02060742 eV

  energy  without entropy=      -24.02060742  energy(sigma->0) =      -24.02060742
 


--------------------------------------------------------------------------------------------------------


    POTLOK:  cpu time    0.1608: real time    0.1614


--------------------------------------------------------------------------------------------------------


           RANDOM_SEED =         172267877                0                0
           RANDOM_SEED =         172267877               30                0
   IONSTEP:  cpu time    0.0032: real time    0.0032

  ENERGY OF THE ELECTRON-ION-THERMOSTAT SYSTEM (eV)
  ---------------------------------------------------
% ion-electron   TOTEN  =       -24.020607  see above
  kinetic energy EKIN   =         0.000137
  kin. lattice  EKIN_LAT=         0.000000  (temperature    0.26 K)
  nose potential ES     =         0.000000
  nose kinetic   EPS    =         0.000000
  ---------------------------------------------------
  total energy   ETOTAL =       -24.020471 eV

  maximum distance moved by ions :      0.98E-04

    WAVPRE:  cpu time    0.0469: real time    0.0474
    FEWALD:  cpu time    0.0010: real time    0.0010
    ORTHCH:  cpu time    0.0094: real time    0.0095
     LOOP+:  cpu time    8.2427: real time    8.2950


--------------------------------------- Iteration      2(   1)  ---------------------------------------


    POTLOK:  cpu time    0.1617: real time    0.1627
    SETDIJ:  cpu time    0.0026: real time    0.0026
     EDDAV:  cpu time    0.1915: real time    0.1924
       DOS:  cpu time    0.0002: real time    0.0002
    CHARGE:  cpu time    0.0187: real time    0.0188
    MIXING:  cpu time    0.0082: real time    0.0082
    --------------------------------------------
      LOOP:  cpu time    0.3828: real time    0.3849

 eigenvalue-minimisations  :    80
 total energy-change (2. order) :-0.1041144E-02  (-0.1116470E-03)
 number of electron       8.0000003 magnetization 
 augmentation part        0.1844602 magnetization 

 Broyden mixing:
  rms(total) = 0.14055E-02    rms(broyden)= 0.14045E-02
  rms(prec ) = 0.16789E-02
  weight for this iteration     100.00

 Free energy of the ion-electron system (eV)
  ---------------------------------------------------
  alpha Z        PSCENC =         0.24076842
  Ewald energy   TEWEN  =       128.26690102
  -Hartree energ DENC   =      -284.11315088
  -exchange      EXHF   =         0.00000000
  -V(xc)+E(xc)   XCENC  =        24.70855790
  PAW double counting   =       462.46553956     -463.25035972
  entropy T*S    EENTRO =        -0.00000000
  eigenvalues    EBANDS =       -89.38165914
  atomic energy  EATOM  =       197.04175453
  Solvation  Ediel_sol  =         0.00000000
  ---------------------------------------------------
  free energy    TOTEN  =       -24.02164830 eV

  energy without entropy =      -24.02164830  energy(sigma->0) =      -24.02164830


--------------------------------------------------------------------------------------------------------




--------------------------------------- Iteration      2(   2)  ---------------------------------------


    POTLOK:  cpu time    0.1635: real time    0.1659
    SETDIJ:  cpu time    0.0022: real time    0.0022
    EDDIAG:  cpu time    0.0403: real time    0.0404
  RMM-DIIS:  cpu time    0.1742: real time    0.1749
    ORTHCH:  cpu time    0.0020: real time    0.0020
       DOS:  cpu time    0.0002: real time    0.0002
    CHARGE:  cpu time    0.0196: real time    0.0197
    MIXING:  cpu time    0.0054: real time    0.0055
    --------------------------------------------
      LOOP:  cpu time    0.4075: real time    0.4109

 eigenvalue-minimisations  :    64
 total energy-change (2. order) : 0.3408309E-06  (-0.3448531E-05)
 number of electron       8.0000003 magnetization 
 augmentation part        0.1844518 magnetization 

 Broyden mixing:
  rms(total) = 0.89362E-03    rms(broyden)= 0.89334E-03
  rms(prec ) = 0.10432E-02
  weight for this iteration     100.00

 eigenvalues of (default mixing * dielectric matrix)
  average eigenvalue GAMMA=   1.9158
  1.9158

 Free energy of the ion-electron system (eV)
  ---------------------------------------------------
  alpha Z        PSCENC =         0.24076842
  Ewald energy   TEWEN  =       128.26690102
  -Hartree energ DENC   =      -284.12412051
  -exchange      EXHF   =         0.00000000
  -V(xc)+E(xc)   XCENC  =        24.70914626
  PAW double counting   =       462.61862579     -463.40356422
  entropy T*S    EENTRO =        -0.00000000
  eigenvalues    EBANDS =       -89.37115926
  atomic energy  EATOM  =       197.04175453
  Solvation  Ediel_sol  =         0.00000000
  ---------------------------------------------------
  free energy    TOTEN  =       -24.02164796 eV

  energy without entropy =      -24.02164796  energy(sigma->0) =      -24.02164796


--------------------------------------------------------------------------------------------------------




--------------------------------------- Iteration      2(   3)  ---------------------------------------


    POTLOK:  cpu time    0.1609: real time    0.1630
    SETDIJ:  cpu time    0.0030: real time    0.0030
    EDDIAG:  cpu time    0.0421: real time    0.0423
  RMM-DIIS:  cpu time    0.1670: real time    0.1690
    ORTHCH:  cpu time    0.0022: real time    0.0022
       DOS:  cpu time    0.0002: real time    0.0002
    CHARGE:  cpu time    0.0193: real time    0.0194
    MIXING:  cpu time    0.0057: real time    0.0057
    --------------------------------------------
      LOOP:  cpu time    0.4005: real time    0.4048

 eigenvalue-minimisations  :    64
 total energy-change (2. order) : 0.2991813E-06  (-0.5359931E-06)
 number of electron       8.0000003 magnetization 
 augmentation part        0.1844416 magnetization 

 Broyden mixing:
  rms(total) = 0.23152E-03    rms(broyden)= 0.23135E-03
  rms(prec ) = 0.27986E-03
  weight for this iteration     100.00

 eigenvalues of (default mixing * dielectric matrix)
  average eigenvalue GAMMA=   1.6324
  1.1543  2.1105

 Free energy of the ion-electron system (eV)
  ---------------------------------------------------
  alpha Z        PSCENC =         0.24076842
  Ewald energy   TEWEN  =       128.26690102
  -Hartree energ DENC   =      -284.13075392
  -exchange      EXHF   =         0.00000000
  -V(xc)+E(xc)   XCENC  =        24.70951828
  PAW double counting   =       462.73392165     -463.51893965
  entropy T*S    EENTRO =        -0.00000000
  eigenvalues    EBANDS =       -89.36481800
  atomic energy  EATOM  =       197.04175453
  Solvation  Ediel_sol  =         0.00000000
  ---------------------------------------------------
  free energy    TOTEN  =       -24.02164766 eV

  energy without entropy =      -24.02164766  energy(sigma->0) =      -24.02164766


--------------------------------------------------------------------------------------------------------




--------------------------------------- Iteration      2(   4)  ---------------------------------------


    POTLOK:  cpu time    0.1622: real time    0.1631
    SETDIJ:  cpu time    0.0032: real time    0.0032
    EDDIAG:  cpu time    0.0414: real time    0.0415
  RMM-DIIS:  cpu time    0.1378: real time    0.1384
    ORTHCH:  cpu time    0.0022: real time    0.0022
       DOS:  cpu time    0.0002: real time    0.0002
    --------------------------------------------
      LOOP:  cpu time    0.3469: real time    0.3485

 eigenvalue-minimisations  :    48
 total energy-change (2. order) : 0.6912444E-07  (-0.1708965E-07)
 number of electron       8.0000003 magnetization 
 augmentation part        0.1844416 magnetization 

 Free energy of the ion-electron system (eV)
  ---------------------------------------------------
  alpha Z        PSCENC =         0.24076842
  Ewald energy   TEWEN  =       128.26690102
  -Hartree energ DENC   =      -284.12868320
  -exchange      EXHF   =         0.00000000
  -V(xc)+E(xc)   XCENC  =        24.70943495
  PAW double counting   =       462.74434705     -463.52933770
  entropy T*S    EENTRO =        -0.00000000
  eigenvalues    EBANDS =       -89.36683267
  atomic energy  EATOM  =       197.04175453
  Solvation  Ediel_sol  =         0.00000000
  ---------------------------------------------------
  free energy    TOTEN  =       -24.02164760 eV

  energy without entropy =      -24.02164760  energy(sigma->0) =      -24.02164760


--------------------------------------------------------------------------------------------------------




 average (electrostatic) potential at core
  the test charge radii are     0.5201  0.6991
  (the norm of the test charge is              1.0000)
       1 -41.5159       2 -41.4094       3 -41.5515       4 -41.4226       5 -57.9799
 
 
 
 E-fermi :  -8.2219     XC(G=0):  -0.7034     alpha+bet : -0.2094


 k-point     1 :       0.2500    0.2500    0.2500
  band No.  band energies     occupation 
      1     -16.8607      2.00000
      2      -9.3633      2.00000
      3      -9.2849      2.00000
      4      -9.1748      2.00000
      5      -0.3159      0.00000
      6       0.5474      0.00000
      7       0.6519      0.00000
      8       0.6781      0.00000

 k-point     2 :      -0.2500    0.2500    0.2500
  band No.  band energies     occupation 
      1     -16.8607      2.00000
      2      -9.3631      2.00000
      3      -9.2849      2.00000
      4      -9.1746      2.00000
      5      -0.3217      0.00000
      6       0.5542      0.00000
      7       0.6640      0.00000
      8       0.6959      0.00000

 k-point     3 :       0.2500   -0.2500    0.2500
  band No.  band energies     occupation 
      1     -16.8606      2.00000
      2      -9.3632      2.00000
      3      -9.2849      2.00000
      4      -9.1747      2.00000
      5      -0.3240      0.00000
      6       0.5569      0.00000
      7       0.6708      0.00000
      8       0.7042      0.00000

 k-point     4 :      -0.2500   -0.2500    0.2500
  band No.  band energies     occupation 
      1     -16.8607      2.00000
      2      -9.3632      2.00000
      3      -9.2849      2.00000
      4      -9.1746      2.00000
      5      -0.3214      0.00000
      6       0.5561      0.00000
      7       0.6625      0.00000
      8       0.6975      0.00000


--------------------------------------------------------------------------------------------------------


 soft charge-density along one line, spin component           1
         0         1         2         3         4         5         6         7         8         9
 total charge-density along one line
 
 pseudopotential strength for first ion, spin component:           1
 -2.341  -4.034  -0.001  -0.001   0.001
 -4.034  -6.865  -0.003  -0.004   0.002
 -0.001  -0.003  -0.337   0.002  -0.001
 -0.001  -0.004   0.002  -0.336  -0.001
  0.001   0.002  -0.001  -0.001  -0.338
 total augmentation occupancy for first ion, spin component:           1
  3.560  -0.641   0.234   0.335  -0.148
 -0.641   0.130  -0.043  -0.062   0.027
  0.234  -0.043   0.022   0.018  -0.008
  0.335  -0.062   0.018   0.035  -0.012
 -0.148   0.027  -0.008  -0.012   0.014


------------------------ aborting loop because EDIFF is reached ----------------------------------------


    CHARGE:  cpu time    0.0222: real time    0.0223
    FORLOC:  cpu time    0.0166: real time    0.0167
    FORNL :  cpu time    0.0231: real time    0.0232
    STRESS:  cpu time    0.1797: real time    0.1802
    FORCOR:  cpu time    0.1494: real time    0.1499
    FORHAR:  cpu time    0.0523: real time    0.0525
    MIXING:  cpu time    0.0074: real time    0.0074
    OFIELD:  cpu time    0.0000: real time    0.0000

  FORCE on cell =-STRESS in cart. coord.  units (eV):
  Direction    XX          YY          ZZ          XY          YZ          ZX
  --------------------------------------------------------------------------------------
  Alpha Z     0.24077     0.24077     0.24077
  Ewald      41.95092    44.62941    41.68656    -1.26147    -1.36376    -1.05632
  Hartree    94.23810    95.32026    94.56828    -0.70722    -0.72554    -0.28726
  E(xc)     -27.17376   -27.17158   -27.18160    -0.00723    -0.00834    -0.00344
  Local    -195.15019  -198.35278  -195.30192     1.89407     2.00365     1.11172
  n-local   -15.79594   -15.85175   -15.82128    -0.01784    -0.02921     0.01567
  augment     0.11908     0.11384     0.11913     0.00003     0.00002     0.00194
  Kinetic   100.81861   100.74804   101.22079     0.35167     0.43041     0.14806
  Fock        0.00000     0.00000     0.00000     0.00000     0.00000     0.00000
  -------------------------------------------------------------------------------------
  Total      -0.75241    -0.32379    -0.46927     0.25200     0.30722    -0.06963
  in kB      -1.19812    -0.51560    -0.74726     0.40127     0.48922    -0.11087
  external pressure =       -0.82 kB  Pullay stress =        0.00 kB

  kinetic pressure (ideal gas correction) =      0.00 kB
  total pressure  =     -0.82 kB
  Total+kin.    -1.197      -0.515      -0.747       0.401       0.489      -0.111

 VOLUME and BASIS-vectors are now :
 -----------------------------------------------------------------------------
  energy-cutoff  :      400.00
[...]
 -----------------------------------------------------------------------------------------------
   -.342E+00 -.187E+00 0.293E+00   0.711E-14 0.000E+00 0.711E-14   0.341E+00 0.186E+00 -.293E+00   0.358E-03 0.163E-03 -.318E-03
 
 
 POSITION                                       TOTAL-FORCE (eV/Angst)
 -----------------------------------------------------------------------------------
      5.29509      3.97990      3.60106        -0.064704      0.069425      0.070749
      3.84881      4.68816      4.38053        -0.321126      0.014563     -0.029137
      5.40285      5.56671      4.43260        -0.066000     -0.185161      0.042849
      5.18000      4.05597      5.37785         0.070583     -0.090198      0.266015
      4.92713      4.57147      4.45356         0.381016      0.191165     -0.350710
 -----------------------------------------------------------------------------------
    total drift:                               -0.000231     -0.000206     -0.000233


--------------------------------------------------------------------------------------------------------



  FREE ENERGIE OF THE ION-ELECTRON SYSTEM (eV)
  ---------------------------------------------------
  free  energy   TOTEN  =       -24.02538942 eV

  energy  without entropy=      -24.02538942  energy(sigma->0) =      -24.02538942
 
 d Force =-0.1398888E-02[-0.173E-02,-0.107E-02]  d Energy =-0.1398631E-02-0.257E-06
 d Force =-0.1676283E+00[-0.168E+00,-0.167E+00]  d Ewald  =-0.1676278E+00-0.459E-06


--------------------------------------------------------------------------------------------------------


    POTLOK:  cpu time    0.1497: real time    0.1499


--------------------------------------------------------------------------------------------------------


           RANDOM_SEED =         172267877               30                0
   IONSTEP:  cpu time    0.0002: real time    0.0002

  ENERGY OF THE ELECTRON-ION-THERMOSTAT SYSTEM (eV)
  ---------------------------------------------------
% ion-electron   TOTEN  =       -24.025389  see above
  kinetic energy EKIN   =         0.004856
  kin. lattice  EKIN_LAT=         0.000000  (temperature    9.39 K)
  nose potential ES     =         0.000000
  nose kinetic   EPS    =         0.000000
  ---------------------------------------------------
  total energy   ETOTAL =       -24.020533 eV

  maximum distance moved by ions :      0.27E-03

    WAVPRE:  cpu time    0.0537: real time    0.0540
    FEWALD:  cpu time    0.0011: real time    0.0011
    ORTHCH:  cpu time    0.0096: real time    0.0097
 Prediction of Wavefunctions ALPHA= 2.184 BETA=-1.221
     LOOP+:  cpu time    2.1058: real time    2.1145


--------------------------------------- Iteration     10(   1)  ---------------------------------------


    POTLOK:  cpu time    0.1447: real time    0.1450
    SETDIJ:  cpu time    0.0026: real time    0.0026
     EDDAV:  cpu time    0.1943: real time    0.1945
       DOS:  cpu time    0.0002: real time    0.0002
    CHARGE:  cpu time    0.0193: real time    0.0193
    MIXING:  cpu time    0.0053: real time    0.0053
    --------------------------------------------
      LOOP:  cpu time    0.3663: real time    0.3669

 eigenvalue-minimisations  :    80
 total energy-change (2. order) : 0.1266568E-02  (-0.1312642E-04)
 number of electron       8.0000000 magnetization 
 augmentation part        0.1859878 magnetization 

 Broyden mixing:
  rms(total) = 0.11319E-03    rms(broyden)= 0.11310E-03
  rms(prec ) = 0.15091E-03
  weight for this iteration     100.00

 Free energy of the ion-electron system (eV)
  ---------------------------------------------------
  alpha Z        PSCENC =         0.24076842
  Ewald energy   TEWEN  =       129.56851429
  -Hartree energ DENC   =      -285.27224385
  -exchange      EXHF   =         0.00000000
  -V(xc)+E(xc)   XCENC  =        24.77012101
  PAW double counting   =       470.59755023     -471.38711236
  entropy T*S    EENTRO =        -0.00000000
  eigenvalues    EBANDS =       -89.58347464
  atomic energy  EATOM  =       197.04175453
  Solvation  Ediel_sol  =         0.00000000
  ---------------------------------------------------
  free energy    TOTEN  =       -24.02412237 eV

  energy without entropy =      -24.02412237  energy(sigma->0) =      -24.02412237


--------------------------------------------------------------------------------------------------------




--------------------------------------- Iteration     10(   2)  ---------------------------------------


    POTLOK:  cpu time    0.1429: real time    0.1437
    SETDIJ:  cpu time    0.0025: real time    0.0025
    EDDIAG:  cpu time    0.0422: real time    0.0422
  RMM-DIIS:  cpu time    0.1438: real time    0.1441
    ORTHCH:  cpu time    0.0018: real time    0.0018
       DOS:  cpu time    0.0002: real time    0.0002
    CHARGE:  cpu time    0.0197: real time    0.0197
    MIXING:  cpu time    0.0054: real time    0.0054
    --------------------------------------------
      LOOP:  cpu time    0.3585: real time    0.3597

 eigenvalue-minimisations  :    50
 total energy-change (2. order) :-0.9450982E-06  (-0.1669868E-06)
 number of electron       8.0000000 magnetization 
 augmentation part        0.1859879 magnetization 

 Broyden mixing:
  rms(total) = 0.50710E-04    rms(broyden)= 0.50657E-04
  rms(prec ) = 0.83868E-04
  weight for this iteration     100.00

 eigenvalues of (default mixing * dielectric matrix)
  average eigenvalue GAMMA=   1.1161
  1.1161

 Free energy of the ion-electron system (eV)
  ---------------------------------------------------
  alpha Z        PSCENC =         0.24076842
  Ewald energy   TEWEN  =       129.56851429
  -Hartree energ DENC   =      -285.27357603
  -exchange      EXHF   =         0.00000000
  -V(xc)+E(xc)   XCENC  =        24.77017669
  PAW double counting   =       470.61875597     -471.40832625
  entropy T*S    EENTRO =        -0.00000000
  eigenvalues    EBANDS =       -89.58219094
  atomic energy  EATOM  =       197.04175453
  Solvation  Ediel_sol  =         0.00000000
  ---------------------------------------------------
  free energy    TOTEN  =       -24.02412332 eV

  energy without entropy =      -24.02412332  energy(sigma->0) =      -24.02412332


--------------------------------------------------------------------------------------------------------




--------------------------------------- Iteration     10(   3)  ---------------------------------------


    POTLOK:  cpu time    0.1441: real time    0.1446
    SETDIJ:  cpu time    0.0024: real time    0.0024
    EDDIAG:  cpu time    0.0427: real time    0.0428
  RMM-DIIS:  cpu time    0.1446: real time    0.1448
    ORTHCH:  cpu time    0.0018: real time    0.0018
       DOS:  cpu time    0.0002: real time    0.0002
    CHARGE:  cpu time    0.0195: real time    0.0196
    MIXING:  cpu time    0.0061: real time    0.0061
    --------------------------------------------
      LOOP:  cpu time    0.3615: real time    0.3623

 eigenvalue-minimisations  :    48
 total energy-change (2. order) :-0.8803777E-06  (-0.2016348E-07)
 number of electron       8.0000000 magnetization 
 augmentation part        0.1859871 magnetization 

 Broyden mixing:
  rms(total) = 0.23524E-04    rms(broyden)= 0.23511E-04
  rms(prec ) = 0.51945E-04
  weight for this iteration     100.00

 eigenvalues of (default mixing * dielectric matrix)
  average eigenvalue GAMMA=   1.3647
  1.3647  1.3647

 Free energy of the ion-electron system (eV)
  ---------------------------------------------------
  alpha Z        PSCENC =         0.24076842
  Ewald energy   TEWEN  =       129.56851429
  -Hartree energ DENC   =      -285.27427876
  -exchange      EXHF   =         0.00000000
  -V(xc)+E(xc)   XCENC  =        24.77020189
  PAW double counting   =       470.62195701     -471.41153106
  entropy T*S    EENTRO =        -0.00000000
  eigenvalues    EBANDS =       -89.58151051
  atomic energy  EATOM  =       197.04175453
  Solvation  Ediel_sol  =         0.00000000
  ---------------------------------------------------
  free energy    TOTEN  =       -24.02412420 eV

  energy without entropy =      -24.02412420  energy(sigma->0) =      -24.02412420


--------------------------------------------------------------------------------------------------------




--------------------------------------- Iteration     10(   4)  ---------------------------------------


    POTLOK:  cpu time    0.1453: real time    0.1458
    SETDIJ:  cpu time    0.0032: real time    0.0032
    EDDIAG:  cpu time    0.0432: real time    0.0433
  RMM-DIIS:  cpu time    0.1373: real time    0.1378
    ORTHCH:  cpu time    0.0018: real time    0.0018
       DOS:  cpu time    0.0002: real time    0.0002
    --------------------------------------------
      LOOP:  cpu time    0.3309: real time    0.3320

 eigenvalue-minimisations  :    42
 total energy-change (2. order) :-0.8639092E-06  (-0.4185175E-08)
 number of electron       8.0000000 magnetization 
 augmentation part        0.1859871 magnetization 

 Free energy of the ion-electron system (eV)
  ---------------------------------------------------
  alpha Z        PSCENC =         0.24076842
  Ewald energy   TEWEN  =       129.56851429
  -Hartree energ DENC   =      -285.27428117
  -exchange      EXHF   =         0.00000000
  -V(xc)+E(xc)   XCENC  =        24.77019780
  PAW double counting   =       470.61916625     -471.40873843
  entropy T*S    EENTRO =        -0.00000000
  eigenvalues    EBANDS =       -89.58150675
  atomic energy  EATOM  =       197.04175453
  Solvation  Ediel_sol  =         0.00000000
  ---------------------------------------------------
  free energy    TOTEN  =       -24.02412506 eV

  energy without entropy =      -24.02412506  energy(sigma->0) =      -24.02412506


--------------------------------------------------------------------------------------------------------




 average (electrostatic) potential at core
  the test charge radii are     0.5201  0.6991
  (the norm of the test charge is              1.0000)
       1 -41.4483       2 -41.5834       3 -41.4304       4 -41.5742       5 -57.9459
 
 
 
 E-fermi :  -8.3101     XC(G=0):  -0.6874     alpha+bet : -0.2094


 k-point     1 :       0.2500    0.2500    0.2500
  band No.  band energies     occupation 
      1     -16.9021      2.00000
      2      -9.3527      2.00000
      3      -9.2995      2.00000
      4      -9.2367      2.00000
      5      -0.3041      0.00000
      6       0.5586      0.00000
      7       0.6647      0.00000
      8       0.6882      0.00000

 k-point     2 :      -0.2500    0.2500    0.2500
  band No.  band energies     occupation 
      1     -16.9021      2.00000
      2      -9.3526      2.00000
      3      -9.2994      2.00000
      4      -9.2366      2.00000
      5      -0.3100      0.00000
      6       0.5673      0.00000
      7       0.6738      0.00000
      8       0.7065      0.00000

 k-point     3 :       0.2500   -0.2500    0.2500
  band No.  band energies     occupation 
      1     -16.9021      2.00000
      2      -9.3527      2.00000
      3      -9.2994      2.00000
      4      -9.2366      2.00000
      5      -0.3130      0.00000
      6       0.5730      0.00000
      7       0.6830      0.00000
      8       0.7140      0.00000

 k-point     4 :      -0.2500   -0.2500    0.2500
  band No.  band energies     occupation 
      1     -16.9021      2.00000
      2      -9.3526      2.00000
      3      -9.2994      2.00000
      4      -9.2366      2.00000
      5      -0.3097      0.00000
      6       0.5680      0.00000
      7       0.6751      0.00000
      8       0.7074      0.00000


--------------------------------------------------------------------------------------------------------


 soft charge-density along one line, spin component           1
         0         1         2         3         4         5         6         7         8         9
 total charge-density along one line
 
 pseudopotential strength for first ion, spin component:           1
 -2.340  -4.033  -0.001  -0.001   0.001
 -4.033  -6.863  -0.003  -0.004   0.002
 -0.001  -0.003  -0.338   0.002  -0.001
 -0.001  -0.004   0.002  -0.336  -0.001
  0.001   0.002  -0.001  -0.001  -0.339
 total augmentation occupancy for first ion, spin component:           1
  3.529  -0.636   0.228   0.329  -0.142
 -0.636   0.129  -0.042  -0.061   0.026
  0.228  -0.042   0.021   0.018  -0.008
  0.329  -0.061   0.018   0.034  -0.011
 -0.142   0.026  -0.008  -0.011   0.014


------------------------ aborting loop because EDIFF is reached ----------------------------------------


    CHARGE:  cpu time    0.0198: real time    0.0198
    FORLOC:  cpu time    0.0166: real time    0.0166
    FORNL :  cpu time    0.0219: real time    0.0219
    STRESS:  cpu time    0.1821: real time    0.1823
    FORCOR:  cpu time    0.1536: real time    0.1538
    FORHAR:  cpu time    0.0496: real time    0.0496
    MIXING:  cpu time    0.0054: real time    0.0055
    OFIELD:  cpu time    0.0001: real time    0.0000

  FORCE on cell =-STRESS in cart. coord.  units (eV):
  Direction    XX          YY          ZZ          XY          YZ          ZX
  --------------------------------------------------------------------------------------
  Alpha Z     0.24077     0.24077     0.24077
  Ewald      42.99060    43.42312    43.15479    -0.81898    -1.02722    -0.00807
  Hartree    94.42823    95.67923    95.16619    -0.35657    -0.34100    -0.19209
  E(xc)     -27.24259   -27.23841   -27.24324    -0.00035    -0.00075    -0.00152
  Local    -195.94247  -198.02918  -197.06044     1.00907     1.12340     0.29963
  n-local   -15.98467   -15.92904   -15.96661     0.01647     0.01981    -0.01439
  augment     0.11247     0.11692     0.11456     0.00157     0.00233    -0.00117
  Kinetic   101.38318   101.16977   101.41528     0.01088     0.03905     0.07281
  Fock        0.00000     0.00000     0.00000     0.00000     0.00000     0.00000
  -------------------------------------------------------------------------------------
  Total      -0.01449    -0.56682    -0.17870    -0.13791    -0.18439     0.15520
  in kB      -0.02308    -0.90259    -0.28455    -0.21960    -0.29362     0.24714
  external pressure =       -0.40 kB  Pullay stress =        0.00 kB

  kinetic pressure (ideal gas correction) =      0.00 kB
  total pressure  =     -0.40 kB
  Total+kin.    -0.019      -0.896      -0.281      -0.221      -0.293       0.249

 VOLUME and BASIS-vectors are now :
 -----------------------------------------------------------------------------
  energy-cutoff  :      400.00
  volume of cell :     1006.16
      direct lattice vectors                 reciprocal lattice vectors
    10.069560548  0.000000000  0.000000000     0.099309200  0.002246620  0.000780200
    -0.225941598  9.987482600  0.000000000     0.000000000  0.100125331  0.002153074
    -0.073731770 -0.215136549 10.004586216     0.000000000  0.000000000  0.099954159

  length of vectors
    10.069560548  9.990037953 10.007170702     0.099337672  0.100148478  0.099954159


 FORCES acting on ions
    electron-ion (+dipol)            ewald-force                    non-local-force                 convergence-correction
 -----------------------------------------------------------------------------------------------
   -.175E+02 0.283E+02 0.408E+02   0.193E+02 -.311E+02 -.449E+02   -.181E+01 0.291E+01 0.420E+01   0.401E-04 0.430E-04 0.457E-05
   0.530E+02 -.568E+01 0.358E+01   -.590E+02 0.632E+01 -.399E+01   0.563E+01 -.606E+00 0.383E+00   0.582E-04 0.211E-04 -.425E-04
   -.227E+02 -.474E+02 0.879E+00   0.249E+02 0.520E+02 -.950E+00   -.232E+01 -.486E+01 0.100E+00   0.311E-04 -.168E-04 -.469E-04
   -.124E+02 0.252E+02 -.454E+02   0.138E+02 -.280E+02 0.505E+02   -.131E+01 0.267E+01 -.480E+01   0.492E-04 0.314E-04 -.634E-04
   -.742E+00 -.615E+00 0.422E+00   0.962E+00 0.748E+00 -.594E+00   0.224E+00 0.962E-01 -.224E+00   0.196E-03 0.104E-03 -.171E-03
 -----------------------------------------------------------------------------------------------
   -.403E+00 -.221E+00 0.343E+00   0.000E+00 0.000E+00 0.711E-14   0.402E+00 0.221E+00 -.343E+00   0.375E-03 0.182E-03 -.319E-03
 
 
 POSITION                                       TOTAL-FORCE (eV/Angst)
 -----------------------------------------------------------------------------------
      5.29381      3.97971      3.59990        -0.057597      0.078519      0.091168
      3.85052      4.68675      4.38037        -0.385446      0.032467     -0.030603
      5.40397      5.56717      4.43444        -0.085991     -0.209941      0.028314
      5.17953      4.05861      5.37749         0.085103     -0.131444      0.307364
      4.92704      4.57135      4.45355         0.443791      0.230225     -0.396474
 -----------------------------------------------------------------------------------
    total drift:                               -0.000140     -0.000175     -0.000231


--------------------------------------------------------------------------------------------------------



  FREE ENERGIE OF THE ION-ELECTRON SYSTEM (eV)
  ---------------------------------------------------
  free  energy   TOTEN  =       -24.02412506 eV

  energy  without entropy=      -24.02412506  energy(sigma->0) =      -24.02412506
 
 d Force =-0.1264365E-02[-0.145E-02,-0.108E-02]  d Energy =-0.1264359E-02-0.603E-08
 d Force =-0.1246730E+00[-0.125E+00,-0.125E+00]  d Ewald  =-0.1246730E+00-0.579E-07


--------------------------------------------------------------------------------------------------------


    POTLOK:  cpu time    0.1500: real time    0.1502


--------------------------------------------------------------------------------------------------------


           RANDOM_SEED =         172267877               30                0
   IONSTEP:  cpu time    0.0001: real time    0.0001

  ENERGY OF THE ELECTRON-ION-THERMOSTAT SYSTEM (eV)
  ---------------------------------------------------
% ion-electron   TOTEN  =       -24.024125  see above
  kinetic energy EKIN   =         0.003623
  kin. lattice  EKIN_LAT=         0.000000  (temperature    7.01 K)
  nose potential ES     =         0.000000
  nose kinetic   EPS    =         0.000000
  ---------------------------------------------------
  total energy   ETOTAL =       -24.020502 eV

  maximum distance moved by ions :      0.24E-03


 mean value of Nose-termostat <S>:     1.000 mean value of <T> :     8.639
 mean temperature <T/S>/<1/S>  :     8.639

    WAVPRE:  cpu time    0.0573: real time    0.0576
    FEWALD:  cpu time    0.0007: real time    0.0008
    ORTHCH:  cpu time    0.0097: real time    0.0097
 Prediction of Wavefunctions ALPHA= 2.106 BETA=-1.133
    POTLOK:  cpu time    0.1555: real time    0.1559
    EDDIAG:  cpu time    0.0438: real time    0.0439
     LOOP+:  cpu time    2.2883: real time    2.2936
    4ORBIT:  cpu time    0.0000: real time    0.0000

 total amount of memory used by VASP MPI-rank0    56577. kBytes
=======================================================================

   base      :      30000. kBytes
   nonl-proj :       2708. kBytes
   fftplans  :       8575. kBytes
   grid      :      13527. kBytes
   one-center:          6. kBytes
   wavefun   :       1761. kBytes
 
  
  
 General timing and accounting informations for this job:
 ========================================================
  
                  Total CPU time used (sec):       30.055
                            User time (sec):       27.056
                          System time (sec):        2.999
                         Elapsed time (sec):       30.484
  
                   Maximum memory used (kb):      178412.
                   Average memory used (kb):           0.
  
                          Minor page faults:       261629
                          Major page faults:            0
                 Voluntary context switches:           78
