 vasp.5.4.4.18Apr17-6-g9f103f2a35 (build Jul 09 2021 13:05:15) complex          
  
 executed on             LinuxIFC date 2021.11.04  19:03:04
 running on   16 total cores
 distrk:  each k-point on   16 cores,    1 groups
 distr:  one band on NCORES_PER_BAND=   4 cores,    4 groups


--------------------------------------------------------------------------------------------------------


 INCAR:
 POTCAR:    PAW_PBE H 15Jun2001                   
 POTCAR:    PAW_PBE C 08Apr2002                   
 POTCAR:    PAW_PBE H 15Jun2001                   
   VRHFIN =H: ultrasoft test                                                    
   LEXCH  = PE                                                                  
   EATOM  =    12.4884 eV,    0.9179 Ry                                         
                                                                                
   TITEL  = PAW_PBE H 15Jun2001                                                 
   LULTRA =        F    use ultrasoft PP ?                                      
   IUNSCR =        0    unscreen: 0-lin 1-nonlin 2-no                           
   RPACOR =    0.000    partial core radius                                     
   POMASS =    1.000; ZVAL   =    1.000    mass and valenz                      
   RCORE  =    1.100    outmost cutoff radius                                   
   RWIGS  =    0.700; RWIGS  =    0.370    wigner-seitz radius (au A)           
   ENMAX  =  250.000; ENMIN  =  200.000 eV                                      
   RCLOC  =    0.701    cutoff for local pot                                    
   LCOR   =        T    correct aug charges                                     
   LPAW   =        T    paw PP                                                  
   EAUG   =  400.000                                                            
   RMAX   =    1.123    core radius for proj-oper                               
   RAUG   =    1.200    factor for augmentation sphere                          
   RDEP   =    1.112    radius for radial grids                                 
   RDEPT  =    0.926    core radius for aug-charge                              
                                                                                
   Atomic configuration                                                         
    2 entries                                                                   
     n  l   j            E        occ.                                          
     1  0  0.50        -6.4927   1.0000                                         
     2  1  0.50        -3.4015   0.0000                                         
   Description                                                                  
     l       E           TYP  RCUT    TYP  RCUT                                 
     0     -6.4927494     23  1.100                                             
     0      6.8029130     23  1.100                                             
     1     -4.0817478     23  1.100                                             
  local pseudopotential read in
  atomic valenz-charges read in
  non local Contribution for L=           0  read in
    real space projection operators read in
  non local Contribution for L=           0  read in
    real space projection operators read in
  non local Contribution for L=           1  read in
    real space projection operators read in
    PAW grid and wavefunctions read in
 
   number of l-projection  operators is LMAX  =           3
   number of lm-projection operators is LMMAX =           5
 
 POTCAR:    PAW_PBE C 08Apr2002                   
   VRHFIN =C: s2p2                                                              
   LEXCH  = PE                                                                  
   EATOM  =   147.1560 eV,   10.8157 Ry                                         
                                                                                
   TITEL  = PAW_PBE C 08Apr2002                                                 
   LULTRA =        F    use ultrasoft PP ?                                      
   IUNSCR =        1    unscreen: 0-lin 1-nonlin 2-no                           
   RPACOR =    1.200    partial core radius                                     
   POMASS =   12.011; ZVAL   =    4.000    mass and valenz                      
   RCORE  =    1.500    outmost cutoff radius                                   
   RWIGS  =    1.630; RWIGS  =    0.863    wigner-seitz radius (au A)           
   ENMAX  =  400.000; ENMIN  =  300.000 eV                                      
   ICORE  =        2    local potential                                         
   LCOR   =        T    correct aug charges                                     
   LPAW   =        T    paw PP                                                  
   EAUG   =  644.873                                                            
   DEXC   =    0.000                                                            
   RMAX   =    1.529    core radius for proj-oper                               
   RAUG   =    1.300    factor for augmentation sphere                          
   RDEP   =    1.501    radius for radial grids                                 
   RDEPT  =    1.300    core radius for aug-charge                              
                                                                                
   Atomic configuration                                                         
    4 entries                                                                   
     n  l   j            E        occ.                                          
     1  0  0.50      -273.3789   2.0000                                         
     2  0  0.50       -13.7508   2.0000                                         
     2  1  0.50        -5.2854   2.0000                                         
     3  2  1.50        -5.4423   0.0000                                         
   Description                                                                  
     l       E           TYP  RCUT    TYP  RCUT                                 
     0    -13.7508458     23  1.200                                             
     0     -8.2022199     23  1.200                                             
     1     -5.2854383     23  1.500                                             
     1     34.0145650     23  1.500                                             
     2     -5.4423304      7  1.500                                             
  local pseudopotential read in
  partial core-charges read in
  partial kinetic energy density read in
  atomic valenz-charges read in
  non local Contribution for L=           0  read in
    real space projection operators read in
  non local Contribution for L=           0  read in
    real space projection operators read in
  non local Contribution for L=           1  read in
    real space projection operators read in
  non local Contribution for L=           1  read in
    real space projection operators read in
    PAW grid and wavefunctions read in
 
   number of l-projection  operators is LMAX  =           4
   number of lm-projection operators is LMMAX =           8
 
  PAW_PBE H 15Jun2001                   :
 energy of atom  1       EATOM=  -12.4884
 kinetic energy error for atom=    0.0098 (will be added to EATOM!!)
  PAW_PBE C 08Apr2002                   :
 energy of atom  2       EATOM= -147.1560
 kinetic energy error for atom=    0.0288 (will be added to EATOM!!)
 
 
 POSCAR:  H  C                                   
  positions in cartesian coordinates
  No initial velocities read in
 exchange correlation table for  LEXCH =        8
   RHO(1)=    0.500       N(1)  =     2000
   RHO(2)=  100.500       N(2)  =     4000
 


--------------------------------------------------------------------------------------------------------


 ion  position               nearest neighbor table
   1  0.538  0.407  0.360-   5 1.09
   2  0.394  0.480  0.439-   5 1.11
   3  0.552  0.565  0.443-   5 1.11
   4  0.529  0.416  0.539-   5 1.08
   5  0.503  0.467  0.445-   4 1.08   1 1.09   2 1.11   3 1.11
 

IMPORTANT INFORMATION: All symmetrisations will be switched off!
NOSYMM: (Re-)initialisation of all symmetry stuff for point group C_1.

 
 

Automatic generation of k-mesh.
 generate k-points for:    2    2    2
Space group operators:
 irot       det(A)        alpha          n_x          n_y          n_z        tau_x        tau_y        tau_z
    1     1.000000     0.000000     1.000000     0.000000     0.000000     0.000000     0.000000     0.000000
 
 Subroutine IBZKPT returns following result:
 ===========================================
 
 Found      4 irreducible k-points:
 
 Following reciprocal coordinates:
            Coordinates               Weight
  0.250000  0.250000  0.250000      2.000000
 -0.250000  0.250000  0.250000      2.000000
  0.250000 -0.250000  0.250000      2.000000
 -0.250000 -0.250000  0.250000      2.000000
 
 Following cartesian coordinates:
            Coordinates               Weight
  0.024726  0.024475  0.025219      2.000000
 -0.024726  0.024894  0.025603      2.000000
  0.024726 -0.024894  0.025661      2.000000
 -0.024726 -0.024475  0.026045      2.000000
 


--------------------------------------------------------------------------------------------------------




 Dimension of arrays:
   k-points           NKPTS =      4   k-points in BZ     NKDIM =      4   number of bands    NBANDS=      8
   number of dos      NEDOS =    301   number of ions     NIONS =      5
   non local maximal  LDIM  =      4   non local SUM 2l+1 LMDIM =      8
   total plane-waves  NPLWV = 313600
   max r-space proj   IRMAX =      1   max aug-charges    IRDMAX=   3904
   dimension x,y,z NGX =    70 NGY =   70 NGZ =   64
   dimension x,y,z NGXF=   140 NGYF=  140 NGZF=  128
   support grid    NGXF=   140 NGYF=  140 NGZF=  128
   ions per type =               4   1
   NGX,Y,Z   is equivalent  to a cutoff of  11.51, 11.49, 10.91 a.u.
   NGXF,Y,Z  is equivalent  to a cutoff of  23.02, 22.98, 21.82 a.u.

 SYSTEM =  unknown system                          
 POSCAR =   H  C                                   

 Startparameter for this run:
   NWRITE =      2    write-flag & timer
   PREC   = a         normal or accurate (medium, high low for compatibility)
   ISTART =      0    job   : 0-new  1-cont  2-samecut
   ICHARG =      2    charge: 1-file 2-atom 10-const
   ISPIN  =      1    spin polarized calculation?
   LNONCOLLINEAR =      F non collinear calculations
   LSORBIT =      F    spin-orbit coupling
   INIWAV =      1    electr: 0-lowe 1-rand  2-diag
   LASPH  =      F    aspherical Exc in radial PAW
   METAGGA=      F    non-selfconsistent MetaGGA calc.

 Electronic Relaxation 1
   ENCUT  =  400.0 eV  29.40 Ry    5.42 a.u.  16.49 16.52 15.91*2*pi/ulx,y,z
   ENINI  =  400.0     initial cutoff
   ENAUG  =  644.9 eV  augmentation charge cutoff
   NELM   =    120;   NELMIN=  4; NELMDL= -5     # of ELM steps 
   EDIFF  = 0.1E-05   stopping-criterion for ELM
   LREAL  =      F    real-space projection
   NLSPLINE    = F    spline interpolate recip. space projectors
   LCOMPAT=      F    compatible to vasp.4.4
   GGA_COMPAT  = T    GGA compatible to vasp.4.4-vasp.4.6
   LMAXPAW     = -100 max onsite density
   LMAXMIX     =    2 max onsite mixed and CHGCAR
   VOSKOWN=      0    Vosko Wilk Nusair interpolation
   ROPT   =    0.00000   0.00000
 Ionic relaxation
   EDIFFG = 0.1E-04   stopping-criterion for IOM
   NSW    =     10    number of steps for IOM
   NBLOCK =      1;   KBLOCK =     10    inner block; outer block 
   IBRION =      0    ionic relax: 0-MD 1-quasi-New 2-CG
   NFREE  =      0    steps in history (QN), initial steepest desc. (CG)
   ISIF   =      2    stress and relaxation
   IWAVPR =     12    prediction:  0-non 1-charg 2-wave 3-comb
   ISYM   =      0    0-nonsym 1-usesym 2-fastsym
   LCORR  =      T    Harris-Foulkes like correction to forces

   POTIM  = 0.5000    time-step for ionic-motion
   TEIN   =    0.0    initial temperature
   TEBEG  =    0.0;   TEEND  =   0.0 temperature during run
   SMASS  =  -3.00    Nose mass-parameter (am)
   estimated Nose-frequenzy (Omega)   =  0.10E-29 period in steps =****** mass=  -0.234E-26a.u.
   SCALEE = 1.0000    scale energy and forces
   NPACO  =    256;   APACO  = 16.0  distance and # of slots for P.C.
   PSTRESS=    0.0 pullay stress

  Mass of Ions in am
   POMASS =   1.00 12.01
  Ionic Valenz
   ZVAL   =   1.00  4.00
  Atomic Wigner-Seitz radii
   RWIGS  =  -1.00 -1.00
  virtual crystal weights 
   VCA    =   1.00  1.00
   NELECT =       8.0000    total number of electrons
   NUPDOWN=      -1.0000    fix difference up-down

 DOS related values:
   EMIN   =  10.00;   EMAX   =-10.00  energy-range for DOS
   EFERMI =   0.00
   ISMEAR =     0;   SIGMA  =   0.20  broadening in eV -4-tet -1-fermi 0-gaus

 Electronic relaxation 2 (details)
   IALGO  =     68    algorithm
   LDIAG  =      T    sub-space diagonalisation (order eigenvalues)
   LSUBROT=      F    optimize rotation matrix (better conditioning)
   TURBO    =      0    0=normal 1=particle mesh
   IRESTART =      0    0=no restart 2=restart with 2 vectors
   NREBOOT  =      0    no. of reboots
   NMIN     =      0    reboot dimension
   EREF     =   0.00    reference energy to select bands
   IMIX   =      4    mixing-type and parameters
     AMIX     =   0.40;   BMIX     =  1.00
     AMIX_MAG =   1.60;   BMIX_MAG =  1.00
     AMIN     =   0.10
     WC   =   100.;   INIMIX=   1;  MIXPRE=   1;  MAXMIX= -45

 Intra band minimization:
   WEIMIN = 0.0010     energy-eigenvalue tresh-hold
   EBREAK =  0.31E-07  absolut break condition
   DEPER  =   0.30     relativ break condition  

   TIME   =   0.40     timestep for ELM

  volume/ion in A,a.u.               =     199.75      1347.97
  Fermi-wavevector in a.u.,A,eV,Ry     =   0.327557  0.618993  1.459820  0.107294
  Thomas-Fermi vector in A             =   1.220387
 
 Write flags
   LWAVE        =      F    write WAVECAR
   LDOWNSAMPLE  =      F    k-point downsampling of WAVECAR
   LCHARG       =      F    write CHGCAR
   LVTOT        =      F    write LOCPOT, total local potential
   LVHAR        =      F    write LOCPOT, Hartree potential only
   LELF         =      F    write electronic localiz. function (ELF)
   LORBIT       =      0    0 simple, 1 ext, 2 COOP (PROOUT), +10 PAW based schemes


 Dipole corrections
   LMONO  =      F    monopole corrections only (constant potential shift)
   LDIPOL =      F    correct potential (dipole corrections)
   IDIPOL =      0    1-x, 2-y, 3-z, 4-all directions 
   EPSILON=  1.0000000 bulk dielectric constant

 Exchange correlation treatment:
   GGA     =    --    GGA type
   LEXCH   =     8    internal setting for exchange type
   VOSKOWN=      0    Vosko Wilk Nusair interpolation
   LHFCALC =     F    Hartree Fock is set to
   LHFONE  =     F    Hartree Fock one center treatment
   AEXX    =    0.0000 exact exchange contribution

 Linear response parameters
   LEPSILON=     F    determine dielectric tensor
   LRPA    =     F    only Hartree local field effects (RPA)
   LNABLA  =     F    use nabla operator in PAW spheres
   LVEL    =     F    velocity operator in full k-point grid
   LINTERFAST=   F  fast interpolation
   KINTER  =     0    interpolate to denser k-point grid
   CSHIFT  =0.1000    complex shift for real part using Kramers Kronig
   OMEGAMAX=  -1.0    maximum frequency
   DEG_THRESHOLD= 0.2000000E-02 threshold for treating states as degnerate
   RTIME   =   -0.100 relaxation time in fs
  (WPLASMAI=    0.000 imaginary part of plasma frequency in eV, 0.658/RTIME)
   DFIELD  = 0.0000000 0.0000000 0.0000000 field for delta impulse in time
 
 Orbital magnetization related:
   ORBITALMAG=     F  switch on orbital magnetization
   LCHIMAG   =     F  perturbation theory with respect to B field
   DQ        =  0.001000  dq finite difference perturbation B field
   LLRAUG    =     F  two centre corrections for induced B field



--------------------------------------------------------------------------------------------------------


 molecular dynamics for ions
   using a microcanonical ensemble
 charge density and potential will be updated during run
 non-spin polarized calculation
 RMM-DIIS sequential band-by-band and
  variant of blocked Davidson during initial phase
 perform sub-space diagonalisation
    before iterative eigenvector-optimisation
 modified Broyden-mixing scheme, WC =      100.0
 initial mixing is a Kerker type mixing with AMIX =  0.4000 and BMIX =      1.0000
 Hartree-type preconditioning will be used
 using additional bands            4
 reciprocal scheme for non local part
 use partial core corrections
 calculate Harris-corrections to forces 
   (improved forces if not selfconsistent)
 use gradient corrections 
 use of overlap-Matrix (Vanderbilt PP)
 Gauss-broadening in eV      SIGMA  =   0.20


--------------------------------------------------------------------------------------------------------


  energy-cutoff  :      400.00
  volume of cell :      998.74
      direct lattice vectors                 reciprocal lattice vectors
    10.110672251  0.000000000  0.000000000     0.098905392 -0.000837764 -0.000768643
     0.085786147 10.127809298  0.000000000     0.000000000  0.098738036 -0.000883533
     0.076538031  0.087276179  9.753429282     0.000000000  0.000000000  0.102528041

  length of vectors
    10.110672251 10.128172611  9.754120051     0.098911926  0.098741989  0.102528041


 
 k-points in units of 2pi/SCALE and weight: read from INCAR                         
   0.02472635  0.02447507  0.02521897       0.250
  -0.02472635  0.02489395  0.02560329       0.250
   0.02472635 -0.02489395  0.02566073       0.250
  -0.02472635 -0.02447507  0.02604505       0.250
 
 k-points in reciprocal lattice and weights: read from INCAR                         
   0.25000000  0.25000000  0.25000000       0.250
  -0.25000000  0.25000000  0.25000000       0.250
   0.25000000 -0.25000000  0.25000000       0.250
  -0.25000000 -0.25000000  0.25000000       0.250
 
 position of ions in fractional coordinates (direct lattice) 
   0.53808632  0.40686152  0.36018403
   0.39397275  0.47994997  0.43916332
   0.55209919  0.56545433  0.44270297
   0.52882740  0.41623662  0.53931363
   0.50326355  0.46730178  0.44527303
 
 position of ions in cartesian coordinates  (Angst):
   5.50288527  4.15205141  3.51302942
   4.05811514  4.89917025  4.28334837
   5.66448574  5.76545102  4.31787207
   5.42378586  4.26263435  5.26015732
   5.16250110  4.77160504  4.34293905
 


--------------------------------------------------------------------------------------------------------


 k-point  1 :   0.2500 0.2500 0.2500  plane waves:   18143
 k-point  2 :  -0.2500 0.2500 0.2500  plane waves:   18150
 k-point  3 :   0.2500-0.2500 0.2500  plane waves:   18151
 k-point  4 :  -0.2500-0.2500 0.2500  plane waves:   18122

 maximum and minimum number of plane-waves per node :      4550     4515

 maximum number of plane-waves:     18151
 maximum index in each direction: 
   IXMAX=   16   IYMAX=   16   IZMAX=   15
   IXMIN=  -16   IYMIN=  -16   IZMIN=  -16


 parallel 3D FFT for wavefunctions:
    minimum data exchange during FFTs selected (reduces bandwidth)
 parallel 3D FFT for charge:
    minimum data exchange during FFTs selected (reduces bandwidth)


 total amount of memory used by VASP MPI-rank0    53515. kBytes
=======================================================================

   base      :      30000. kBytes
   nonl-proj :       2694. kBytes
   fftplans  :       7853. kBytes
   grid      :      12378. kBytes
   one-center:          6. kBytes
   wavefun   :        584. kBytes
 
     INWAV:  cpu time    0.0000: real time    0.0000
 Broyden mixing: mesh for mixing (old mesh)
   NGX = 33   NGY = 33   NGZ = 31
  (NGX  =140   NGY  =140   NGZ  =128)
  gives a total of  33759 points

 initial charge density was supplied:
 charge density of overlapping atoms calculated
 number of electron       8.0000000 magnetization 
 keeping initial charge density in first step


--------------------------------------------------------------------------------------------------------


 Maximum index for augmentation-charges          159 (set IRDMAX)


--------------------------------------------------------------------------------------------------------


 First call to EWALD:  gamma=   0.177
 Maximum number of real-space cells 3x 3x 3
 Maximum number of reciprocal cells 3x 3x 3

    FEWALD:  cpu time    0.0015: real time    0.0015


--------------------------------------- Iteration      1(   1)  ---------------------------------------


    POTLOK:  cpu time    0.1264: real time    0.1287
    SETDIJ:  cpu time    0.0017: real time    0.0017
     EDDAV:  cpu time    0.1897: real time    0.1897
       DOS:  cpu time    0.0010: real time    0.0010
    --------------------------------------------
      LOOP:  cpu time    0.3188: real time    0.3211

 eigenvalue-minimisations  :    96
 total energy-change (2. order) : 0.1612504E+02  (-0.2039075E+03)
 number of electron       8.0000000 magnetization 
 augmentation part        8.0000000 magnetization 

 Free energy of the ion-electron system (eV)
  ---------------------------------------------------
  alpha Z        PSCENC =         0.24255617
  Ewald energy   TEWEN  =       128.12891168
  -Hartree energ DENC   =      -243.67107973
  -exchange      EXHF   =         0.00000000
  -V(xc)+E(xc)   XCENC  =        21.99536349
  PAW double counting   =       117.05815612     -117.66307307
  entropy T*S    EENTRO =        -0.05693482
  eigenvalues    EBANDS =       -86.95061346
  atomic energy  EATOM  =       197.04175453
  Solvation  Ediel_sol  =         0.00000000
  ---------------------------------------------------
  free energy    TOTEN  =        16.12504091 eV

  energy without entropy =       16.18197573  energy(sigma->0) =       16.15350832


--------------------------------------------------------------------------------------------------------




--------------------------------------- Iteration      1(   2)  ---------------------------------------


     EDDAV:  cpu time    0.1752: real time    0.1752
       DOS:  cpu time    0.0002: real time    0.0002
    --------------------------------------------
      LOOP:  cpu time    0.1754: real time    0.1754

 eigenvalue-minimisations  :    80
 total energy-change (2. order) :-0.3864826E+02  (-0.3389758E+02)
 number of electron       8.0000000 magnetization 
 augmentation part        8.0000000 magnetization 

 Free energy of the ion-electron system (eV)
  ---------------------------------------------------
  alpha Z        PSCENC =         0.24255617
  Ewald energy   TEWEN  =       128.12891168
  -Hartree energ DENC   =      -243.67107973
  -exchange      EXHF   =         0.00000000
  -V(xc)+E(xc)   XCENC  =        21.99536349
  PAW double counting   =       117.05815612     -117.66307307
  entropy T*S    EENTRO =        -0.00000000
  eigenvalues    EBANDS =      -125.65580613
  atomic energy  EATOM  =       197.04175453
  Solvation  Ediel_sol  =         0.00000000
  ---------------------------------------------------
  free energy    TOTEN  =       -22.52321694 eV

  energy without entropy =      -22.52321694  energy(sigma->0) =      -22.52321694


--------------------------------------------------------------------------------------------------------




--------------------------------------- Iteration      1(   3)  ---------------------------------------


     EDDAV:  cpu time    0.1413: real time    0.1413
       DOS:  cpu time    0.0003: real time    0.0003
    --------------------------------------------
      LOOP:  cpu time    0.1416: real time    0.1416

 eigenvalue-minimisations  :    64
 total energy-change (2. order) :-0.4765573E+01  (-0.4765573E+01)
 number of electron       8.0000000 magnetization 
 augmentation part        8.0000000 magnetization 

 Free energy of the ion-electron system (eV)
  ---------------------------------------------------
  alpha Z        PSCENC =         0.24255617
  Ewald energy   TEWEN  =       128.12891168
  -Hartree energ DENC   =      -243.67107973
  -exchange      EXHF   =         0.00000000
  -V(xc)+E(xc)   XCENC  =        21.99536349
  PAW double counting   =       117.05815612     -117.66307307
  entropy T*S    EENTRO =        -0.00000000
  eigenvalues    EBANDS =      -130.42137869
  atomic energy  EATOM  =       197.04175453
  Solvation  Ediel_sol  =         0.00000000
  ---------------------------------------------------
  free energy    TOTEN  =       -27.28878950 eV

  energy without entropy =      -27.28878950  energy(sigma->0) =      -27.28878950


--------------------------------------------------------------------------------------------------------




--------------------------------------- Iteration      1(   4)  ---------------------------------------


     EDDAV:  cpu time    0.2344: real time    0.2344
       DOS:  cpu time    0.0003: real time    0.0003
    --------------------------------------------
      LOOP:  cpu time    0.2347: real time    0.2347

 eigenvalue-minimisations  :   128
 total energy-change (2. order) :-0.2198897E+00  (-0.2198897E+00)
 number of electron       8.0000000 magnetization 
 augmentation part        8.0000000 magnetization 

 Free energy of the ion-electron system (eV)
  ---------------------------------------------------
  alpha Z        PSCENC =         0.24255617
  Ewald energy   TEWEN  =       128.12891168
  -Hartree energ DENC   =      -243.67107973
  -exchange      EXHF   =         0.00000000
  -V(xc)+E(xc)   XCENC  =        21.99536349
  PAW double counting   =       117.05815612     -117.66307307
  entropy T*S    EENTRO =        -0.00000000
  eigenvalues    EBANDS =      -130.64126834
  atomic energy  EATOM  =       197.04175453
  Solvation  Ediel_sol  =         0.00000000
  ---------------------------------------------------
  free energy    TOTEN  =       -27.50867915 eV

  energy without entropy =      -27.50867915  energy(sigma->0) =      -27.50867915


--------------------------------------------------------------------------------------------------------




--------------------------------------- Iteration      1(   5)  ---------------------------------------


     EDDAV:  cpu time    0.1875: real time    0.1875
       DOS:  cpu time    0.0002: real time    0.0002
    CHARGE:  cpu time    0.0181: real time    0.0181
    MIXING:  cpu time    0.0036: real time    0.0036
    --------------------------------------------
      LOOP:  cpu time    0.2094: real time    0.2094

 eigenvalue-minimisations  :    96
 total energy-change (2. order) :-0.6829330E-04  (-0.6829337E-04)
 number of electron       8.0000003 magnetization 
 augmentation part        0.2243792 magnetization 

 Broyden mixing:
  rms(total) = 0.86756E+00    rms(broyden)= 0.86733E+00
  rms(prec ) = 0.12300E+01
  weight for this iteration     100.00

 Free energy of the ion-electron system (eV)
  ---------------------------------------------------
  alpha Z        PSCENC =         0.24255617
  Ewald energy   TEWEN  =       128.12891168
  -Hartree energ DENC   =      -243.67107973
  -exchange      EXHF   =         0.00000000
  -V(xc)+E(xc)   XCENC  =        21.99536349
  PAW double counting   =       117.05815612     -117.66307307
  entropy T*S    EENTRO =        -0.00000000
  eigenvalues    EBANDS =      -130.64133664
  atomic energy  EATOM  =       197.04175453
  Solvation  Ediel_sol  =         0.00000000
  ---------------------------------------------------
  free energy    TOTEN  =       -27.50874745 eV

  energy without entropy =      -27.50874745  energy(sigma->0) =      -27.50874745


--------------------------------------------------------------------------------------------------------




--------------------------------------- Iteration      1(   6)  ---------------------------------------


    POTLOK:  cpu time    0.1232: real time    0.1232
    SETDIJ:  cpu time    0.0014: real time    0.0014
    EDDIAG:  cpu time    0.0343: real time    0.0343
  RMM-DIIS:  cpu time    0.1416: real time    0.1416
    ORTHCH:  cpu time    0.0014: real time    0.0014
       DOS:  cpu time    0.0002: real time    0.0002
    CHARGE:  cpu time    0.0167: real time    0.0168
    MIXING:  cpu time    0.0040: real time    0.0040
    --------------------------------------------
      LOOP:  cpu time    0.3228: real time    0.3228

 eigenvalue-minimisations  :    64
 total energy-change (2. order) : 0.2865843E+01  (-0.5287714E+00)
 number of electron       8.0000002 magnetization 
 augmentation part        0.1977622 magnetization 

 Broyden mixing:
  rms(total) = 0.42756E+00    rms(broyden)= 0.42746E+00
  rms(prec ) = 0.55487E+00
  weight for this iteration     100.00

 eigenvalues of (default mixing * dielectric matrix)
  average eigenvalue GAMMA=   1.3033
  1.3033

 Free energy of the ion-electron system (eV)
  ---------------------------------------------------
  alpha Z        PSCENC =         0.24255617
  Ewald energy   TEWEN  =       128.12891168
  -Hartree energ DENC   =      -263.30266737
  -exchange      EXHF   =         0.00000000
  -V(xc)+E(xc)   XCENC  =        23.18735972
  PAW double counting   =       237.57865003     -238.35707482
  entropy T*S    EENTRO =        -0.00000000
  eigenvalues    EBANDS =      -109.16239426
  atomic energy  EATOM  =       197.04175453
  Solvation  Ediel_sol  =         0.00000000
  ---------------------------------------------------
  free energy    TOTEN  =       -24.64290433 eV

  energy without entropy =      -24.64290433  energy(sigma->0) =      -24.64290433


--------------------------------------------------------------------------------------------------------




--------------------------------------- Iteration      1(   7)  ---------------------------------------


    POTLOK:  cpu time    0.1234: real time    0.1234
    SETDIJ:  cpu time    0.0014: real time    0.0014
    EDDIAG:  cpu time    0.0321: real time    0.0321
  RMM-DIIS:  cpu time    0.1395: real time    0.1395
    ORTHCH:  cpu time    0.0013: real time    0.0013
       DOS:  cpu time    0.0002: real time    0.0002
    CHARGE:  cpu time    0.0160: real time    0.0160
    MIXING:  cpu time    0.0040: real time    0.0040
    --------------------------------------------
      LOOP:  cpu time    0.3179: real time    0.3179

 eigenvalue-minimisations  :    64
 total energy-change (2. order) : 0.4867645E+00  (-0.1185946E+00)
 number of electron       8.0000002 magnetization 
 augmentation part        0.1873713 magnetization 

 Broyden mixing:
  rms(total) = 0.22744E+00    rms(broyden)= 0.22737E+00
  rms(prec ) = 0.27515E+00
  weight for this iteration     100.00

 eigenvalues of (default mixing * dielectric matrix)
  average eigenvalue GAMMA=   1.8416
  1.4534  2.2298

 Free energy of the ion-electron system (eV)
  ---------------------------------------------------
  alpha Z        PSCENC =         0.24255617
  Ewald energy   TEWEN  =       128.12891168
  -Hartree energ DENC   =      -274.87500873
  -exchange      EXHF   =         0.00000000
  -V(xc)+E(xc)   XCENC  =        24.03831495
  PAW double counting   =       362.83675314     -363.65369115
  entropy T*S    EENTRO =        -0.00000000
  eigenvalues    EBANDS =       -97.91573044
  atomic energy  EATOM  =       197.04175453
  Solvation  Ediel_sol  =         0.00000000
  ---------------------------------------------------
  free energy    TOTEN  =       -24.15613985 eV

  energy without entropy =      -24.15613985  energy(sigma->0) =      -24.15613985


--------------------------------------------------------------------------------------------------------




--------------------------------------- Iteration      1(   8)  ---------------------------------------


    POTLOK:  cpu time    0.1232: real time    0.1232
    SETDIJ:  cpu time    0.0015: real time    0.0015
    EDDIAG:  cpu time    0.0320: real time    0.0320
  RMM-DIIS:  cpu time    0.1404: real time    0.1404
    ORTHCH:  cpu time    0.0015: real time    0.0015
       DOS:  cpu time    0.0002: real time    0.0002
    CHARGE:  cpu time    0.0159: real time    0.0159
    MIXING:  cpu time    0.0041: real time    0.0041
    --------------------------------------------
      LOOP:  cpu time    0.3188: real time    0.3188

 eigenvalue-minimisations  :    64
 total energy-change (2. order) : 0.1458628E+00  (-0.1622258E-01)
 number of electron       8.0000002 magnetization 
 augmentation part        0.1859954 magnetization 

 Broyden mixing:
  rms(total) = 0.22636E-01    rms(broyden)= 0.22611E-01
  rms(prec ) = 0.52573E-01
  weight for this iteration     100.00

 eigenvalues of (default mixing * dielectric matrix)
  average eigenvalue GAMMA=   1.5471
  2.2481  0.9888  1.4044

 Free energy of the ion-electron system (eV)
  ---------------------------------------------------
  alpha Z        PSCENC =         0.24255617
  Ewald energy   TEWEN  =       128.12891168
  -Hartree energ DENC   =      -280.27870538
  -exchange      EXHF   =         0.00000000
  -V(xc)+E(xc)   XCENC  =        24.57427993
  PAW double counting   =       470.94999614     -471.73512813
  entropy T*S    EENTRO =        -0.00000000
  eigenvalues    EBANDS =       -92.93394198
  atomic energy  EATOM  =       197.04175453
  Solvation  Ediel_sol  =         0.00000000
  ---------------------------------------------------
  free energy    TOTEN  =       -24.01027704 eV

  energy without entropy =      -24.01027704  energy(sigma->0) =      -24.01027704


--------------------------------------------------------------------------------------------------------




--------------------------------------- Iteration      1(   9)  ---------------------------------------


    POTLOK:  cpu time    0.1234: real time    0.1234
    SETDIJ:  cpu time    0.0016: real time    0.0016
    EDDIAG:  cpu time    0.0318: real time    0.0318
  RMM-DIIS:  cpu time    0.1405: real time    0.1405
    ORTHCH:  cpu time    0.0014: real time    0.0014
       DOS:  cpu time    0.0002: real time    0.0002
    CHARGE:  cpu time    0.0159: real time    0.0159
    MIXING:  cpu time    0.0041: real time    0.0041
    --------------------------------------------
      LOOP:  cpu time    0.3189: real time    0.3189

 eigenvalue-minimisations  :    64
 total energy-change (2. order) : 0.5598388E-02  (-0.1093618E-02)
 number of electron       8.0000002 magnetization 
 augmentation part        0.1854355 magnetization 

 Broyden mixing:
  rms(total) = 0.19490E-01    rms(broyden)= 0.19486E-01
  rms(prec ) = 0.40310E-01
  weight for this iteration     100.00

 eigenvalues of (default mixing * dielectric matrix)
  average eigenvalue GAMMA=   2.0920
  3.0355  2.9579  1.0027  1.3721

 Free energy of the ion-electron system (eV)
  ---------------------------------------------------
  alpha Z        PSCENC =         0.24255617
  Ewald energy   TEWEN  =       128.12891168
  -Hartree energ DENC   =      -281.52806718
  -exchange      EXHF   =         0.00000000
  -V(xc)+E(xc)   XCENC  =        24.64303319
  PAW double counting   =       474.12434083     -474.91213934
  entropy T*S    EENTRO =        -0.00000000
  eigenvalues    EBANDS =       -91.74506853
  atomic energy  EATOM  =       197.04175453
  Solvation  Ediel_sol  =         0.00000000
  ---------------------------------------------------
  free energy    TOTEN  =       -24.00467865 eV

  energy without entropy =      -24.00467865  energy(sigma->0) =      -24.00467865


--------------------------------------------------------------------------------------------------------




--------------------------------------- Iteration      1(  10)  ---------------------------------------


    POTLOK:  cpu time    0.1191: real time    0.1191
    SETDIJ:  cpu time    0.0015: real time    0.0015
    EDDIAG:  cpu time    0.0317: real time    0.0319
  RMM-DIIS:  cpu time    0.1418: real time    0.1418
    ORTHCH:  cpu time    0.0013: real time    0.0014
       DOS:  cpu time    0.0002: real time    0.0002
    CHARGE:  cpu time    0.0158: real time    0.0158
    MIXING:  cpu time    0.0043: real time    0.0043
    --------------------------------------------
      LOOP:  cpu time    0.3158: real time    0.3160

 eigenvalue-minimisations  :    64
 total energy-change (2. order) : 0.6143109E-02  (-0.2423571E-02)
 number of electron       8.0000002 magnetization 
 augmentation part        0.1843991 magnetization 

 Broyden mixing:
  rms(total) = 0.27524E-01    rms(broyden)= 0.27523E-01
  rms(prec ) = 0.35147E-01
  weight for this iteration     100.00

 eigenvalues of (default mixing * dielectric matrix)
  average eigenvalue GAMMA=   1.7842
  3.0662  2.4211  1.2265  1.2265  0.9806

 Free energy of the ion-electron system (eV)
  ---------------------------------------------------
  alpha Z        PSCENC =         0.24255617
  Ewald energy   TEWEN  =       128.12891168
  -Hartree energ DENC   =      -283.71540223
  -exchange      EXHF   =         0.00000000
  -V(xc)+E(xc)   XCENC  =        24.71311638
  PAW double counting   =       458.38184085     -459.17311957
  entropy T*S    EENTRO =        -0.00000000
  eigenvalues    EBANDS =       -89.61819335
  atomic energy  EATOM  =       197.04175453
  Solvation  Ediel_sol  =         0.00000000
  ---------------------------------------------------
  free energy    TOTEN  =       -23.99853554 eV

  energy without entropy =      -23.99853554  energy(sigma->0) =      -23.99853554


--------------------------------------------------------------------------------------------------------




--------------------------------------- Iteration      1(  11)  ---------------------------------------


    POTLOK:  cpu time    0.1185: real time    0.1185
    SETDIJ:  cpu time    0.0014: real time    0.0014
    EDDIAG:  cpu time    0.0313: real time    0.0313
  RMM-DIIS:  cpu time    0.1404: real time    0.1404
    ORTHCH:  cpu time    0.0014: real time    0.0014
       DOS:  cpu time    0.0002: real time    0.0002
    CHARGE:  cpu time    0.0157: real time    0.0157
    MIXING:  cpu time    0.0046: real time    0.0046
    --------------------------------------------
      LOOP:  cpu time    0.3134: real time    0.3134

 eigenvalue-minimisations  :    64
 total energy-change (2. order) :-0.7600767E-03  (-0.8104628E-03)
 number of electron       8.0000002 magnetization 
 augmentation part        0.1847641 magnetization 

 Broyden mixing:
  rms(total) = 0.84254E-02    rms(broyden)= 0.84218E-02
  rms(prec ) = 0.14223E-01
  weight for this iteration     100.00

 eigenvalues of (default mixing * dielectric matrix)
  average eigenvalue GAMMA=   2.2648
  4.7804  3.0766  2.4272  1.2810  1.0118  1.0118

 Free energy of the ion-electron system (eV)
  ---------------------------------------------------
  alpha Z        PSCENC =         0.24255617
  Ewald energy   TEWEN  =       128.12891168
  -Hartree energ DENC   =      -283.60929265
  -exchange      EXHF   =         0.00000000
  -V(xc)+E(xc)   XCENC  =        24.72729443
  PAW double counting   =       467.50596288     -468.28973955
  entropy T*S    EENTRO =        -0.00000000
  eigenvalues    EBANDS =       -89.74674310
  atomic energy  EATOM  =       197.04175453
  Solvation  Ediel_sol  =         0.00000000
  ---------------------------------------------------
  free energy    TOTEN  =       -23.99929562 eV

  energy without entropy =      -23.99929562  energy(sigma->0) =      -23.99929562


--------------------------------------------------------------------------------------------------------




--------------------------------------- Iteration      1(  12)  ---------------------------------------


    POTLOK:  cpu time    0.1123: real time    0.1123
    SETDIJ:  cpu time    0.0014: real time    0.0014
    EDDIAG:  cpu time    0.0315: real time    0.0316
  RMM-DIIS:  cpu time    0.1415: real time    0.1415
    ORTHCH:  cpu time    0.0014: real time    0.0014
       DOS:  cpu time    0.0002: real time    0.0002
    CHARGE:  cpu time    0.0158: real time    0.0158
    MIXING:  cpu time    0.0046: real time    0.0046
    --------------------------------------------
      LOOP:  cpu time    0.3087: real time    0.3088

 eigenvalue-minimisations  :    64
 total energy-change (2. order) :-0.9437200E-02  (-0.3276075E-03)
 number of electron       8.0000002 magnetization 
 augmentation part        0.1849681 magnetization 

 Broyden mixing:
  rms(total) = 0.11992E-01    rms(broyden)= 0.11991E-01
  rms(prec ) = 0.15732E-01
  weight for this iteration     100.00

 eigenvalues of (default mixing * dielectric matrix)
  average eigenvalue GAMMA=   2.0127
  4.7626  2.9180  2.4263  1.2257  1.0027  1.0027  0.7510

 Free energy of the ion-electron system (eV)
  ---------------------------------------------------
  alpha Z        PSCENC =         0.24255617
  Ewald energy   TEWEN  =       128.12891168
  -Hartree energ DENC   =      -283.81778841
  -exchange      EXHF   =         0.00000000
  -V(xc)+E(xc)   XCENC  =        24.71929958
  PAW double counting   =       464.39780308     -465.18060124
  entropy T*S    EENTRO =        -0.00000000
  eigenvalues    EBANDS =       -89.54066821
  atomic energy  EATOM  =       197.04175453
  Solvation  Ediel_sol  =         0.00000000
  ---------------------------------------------------
  free energy    TOTEN  =       -24.00873282 eV

  energy without entropy =      -24.00873282  energy(sigma->0) =      -24.00873282


--------------------------------------------------------------------------------------------------------




--------------------------------------- Iteration      1(  13)  ---------------------------------------


    POTLOK:  cpu time    0.1123: real time    0.1123
    SETDIJ:  cpu time    0.0014: real time    0.0014
    EDDIAG:  cpu time    0.0315: real time    0.0315
  RMM-DIIS:  cpu time    0.1422: real time    0.1422
    ORTHCH:  cpu time    0.0017: real time    0.0017
       DOS:  cpu time    0.0002: real time    0.0002
    CHARGE:  cpu time    0.0158: real time    0.0158
    MIXING:  cpu time    0.0047: real time    0.0047
    --------------------------------------------
      LOOP:  cpu time    0.3096: real time    0.3097

 eigenvalue-minimisations  :    64
 total energy-change (2. order) :-0.5720323E-03  (-0.9631779E-04)
 number of electron       8.0000002 magnetization 
 augmentation part        0.1847302 magnetization 

 Broyden mixing:
  rms(total) = 0.46625E-02    rms(broyden)= 0.46623E-02
  rms(prec ) = 0.64354E-02
  weight for this iteration     100.00

 eigenvalues of (default mixing * dielectric matrix)
  average eigenvalue GAMMA=   2.3995
  6.0536  4.0210  2.4751  2.3249  1.2215  1.2215  0.9925  0.8857

 Free energy of the ion-electron system (eV)
  ---------------------------------------------------
  alpha Z        PSCENC =         0.24255617
  Ewald energy   TEWEN  =       128.12891168
  -Hartree energ DENC   =      -283.99883331
  -exchange      EXHF   =         0.00000000
  -V(xc)+E(xc)   XCENC  =        24.72437809
  PAW double counting   =       464.21751526     -465.00265117
  entropy T*S    EENTRO =        -0.00000000
  eigenvalues    EBANDS =       -89.36293610
  atomic energy  EATOM  =       197.04175453
  Solvation  Ediel_sol  =         0.00000000
  ---------------------------------------------------
  free energy    TOTEN  =       -24.00930485 eV

  energy without entropy =      -24.00930485  energy(sigma->0) =      -24.00930485


--------------------------------------------------------------------------------------------------------




--------------------------------------- Iteration      1(  14)  ---------------------------------------


    POTLOK:  cpu time    0.1104: real time    0.1104
    SETDIJ:  cpu time    0.0014: real time    0.0014
    EDDIAG:  cpu time    0.0313: real time    0.0313
  RMM-DIIS:  cpu time    0.1421: real time    0.1421
    ORTHCH:  cpu time    0.0014: real time    0.0014
       DOS:  cpu time    0.0002: real time    0.0002
    CHARGE:  cpu time    0.0158: real time    0.0158
    MIXING:  cpu time    0.0049: real time    0.0049
    --------------------------------------------
      LOOP:  cpu time    0.3076: real time    0.3077

 eigenvalue-minimisations  :    64
 total energy-change (2. order) :-0.2793024E-02  (-0.1247592E-03)
 number of electron       8.0000002 magnetization 
 augmentation part        0.1846077 magnetization 

 Broyden mixing:
  rms(total) = 0.28185E-02    rms(broyden)= 0.28167E-02
  rms(prec ) = 0.37222E-02
  weight for this iteration     100.00

 eigenvalues of (default mixing * dielectric matrix)
  average eigenvalue GAMMA=   2.3655
  6.4702  3.9450  2.6000  2.3628  1.5188  1.2480  1.2480  0.9923  0.9049

 Free energy of the ion-electron system (eV)
  ---------------------------------------------------
  alpha Z        PSCENC =         0.24255617
  Ewald energy   TEWEN  =       128.12891168
  -Hartree energ DENC   =      -284.00283133
  -exchange      EXHF   =         0.00000000
  -V(xc)+E(xc)   XCENC  =        24.71486253
  PAW double counting   =       463.52286997     -464.30933255
  entropy T*S    EENTRO =        -0.00000000
  eigenvalues    EBANDS =       -89.35088887
  atomic energy  EATOM  =       197.04175453
  Solvation  Ediel_sol  =         0.00000000
  ---------------------------------------------------
  free energy    TOTEN  =       -24.01209788 eV

  energy without entropy =      -24.01209788  energy(sigma->0) =      -24.01209788


--------------------------------------------------------------------------------------------------------




--------------------------------------- Iteration      1(  15)  ---------------------------------------


    POTLOK:  cpu time    0.1109: real time    0.1109
    SETDIJ:  cpu time    0.0014: real time    0.0014
    EDDIAG:  cpu time    0.0312: real time    0.0312
  RMM-DIIS:  cpu time    0.1415: real time    0.1415
    ORTHCH:  cpu time    0.0014: real time    0.0014
       DOS:  cpu time    0.0002: real time    0.0002
    CHARGE:  cpu time    0.0157: real time    0.0157
    MIXING:  cpu time    0.0050: real time    0.0050
    --------------------------------------------
      LOOP:  cpu time    0.3073: real time    0.3073

 eigenvalue-minimisations  :    64
 total energy-change (2. order) :-0.2753657E-03  (-0.4410712E-05)
 number of electron       8.0000002 magnetization 
 augmentation part        0.1845829 magnetization 

 Broyden mixing:
  rms(total) = 0.13771E-02    rms(broyden)= 0.13769E-02
  rms(prec ) = 0.18348E-02
  weight for this iteration     100.00

 eigenvalues of (default mixing * dielectric matrix)
  average eigenvalue GAMMA=   2.5270
  7.5166  4.8284  2.7982  2.6114  2.0682  1.2697  1.2697  1.0051  1.0051  0.8974

 Free energy of the ion-electron system (eV)
  ---------------------------------------------------
  alpha Z        PSCENC =         0.24255617
  Ewald energy   TEWEN  =       128.12891168
  -Hartree energ DENC   =      -283.98802142
  -exchange      EXHF   =         0.00000000
  -V(xc)+E(xc)   XCENC  =        24.71473468
  PAW double counting   =       463.65973843     -464.44554685
  entropy T*S    EENTRO =        -0.00000000
  eigenvalues    EBANDS =       -89.36650046
  atomic energy  EATOM  =       197.04175453
  Solvation  Ediel_sol  =         0.00000000
  ---------------------------------------------------
  free energy    TOTEN  =       -24.01237324 eV

  energy without entropy =      -24.01237324  energy(sigma->0) =      -24.01237324


--------------------------------------------------------------------------------------------------------




--------------------------------------- Iteration      1(  16)  ---------------------------------------


    POTLOK:  cpu time    0.1123: real time    0.1123
    SETDIJ:  cpu time    0.0014: real time    0.0014
    EDDIAG:  cpu time    0.0313: real time    0.0313
  RMM-DIIS:  cpu time    0.1405: real time    0.1405
    ORTHCH:  cpu time    0.0014: real time    0.0014
       DOS:  cpu time    0.0002: real time    0.0002
    CHARGE:  cpu time    0.0157: real time    0.0157
    MIXING:  cpu time    0.0051: real time    0.0051
    --------------------------------------------
      LOOP:  cpu time    0.3078: real time    0.3079

 eigenvalue-minimisations  :    64
 total energy-change (2. order) :-0.1905214E-03  (-0.6918264E-05)
 number of electron       8.0000002 magnetization 
 augmentation part        0.1846187 magnetization 

 Broyden mixing:
  rms(total) = 0.48282E-03    rms(broyden)= 0.48243E-03
  rms(prec ) = 0.67680E-03
  weight for this iteration     100.00

 eigenvalues of (default mixing * dielectric matrix)
  average eigenvalue GAMMA=   2.5048
  7.7042  4.8252  3.3267  2.3880  1.9845  1.9845  1.2398  1.2398  1.0161  0.9220
  0.9220

 Free energy of the ion-electron system (eV)
  ---------------------------------------------------
  alpha Z        PSCENC =         0.24255617
  Ewald energy   TEWEN  =       128.12891168
  -Hartree energ DENC   =      -283.95739356
  -exchange      EXHF   =         0.00000000
  -V(xc)+E(xc)   XCENC  =        24.71372443
  PAW double counting   =       463.65965727     -464.44504920
  entropy T*S    EENTRO =        -0.00000000
  eigenvalues    EBANDS =       -89.39672508
  atomic energy  EATOM  =       197.04175453
  Solvation  Ediel_sol  =         0.00000000
  ---------------------------------------------------
  free energy    TOTEN  =       -24.01256376 eV

  energy without entropy =      -24.01256376  energy(sigma->0) =      -24.01256376


--------------------------------------------------------------------------------------------------------




--------------------------------------- Iteration      1(  17)  ---------------------------------------


    POTLOK:  cpu time    0.1132: real time    0.1132
    SETDIJ:  cpu time    0.0014: real time    0.0014
    EDDIAG:  cpu time    0.0311: real time    0.0311
  RMM-DIIS:  cpu time    0.1406: real time    0.1406
    ORTHCH:  cpu time    0.0014: real time    0.0014
       DOS:  cpu time    0.0002: real time    0.0002
    CHARGE:  cpu time    0.0157: real time    0.0157
    MIXING:  cpu time    0.0052: real time    0.0052
    --------------------------------------------
      LOOP:  cpu time    0.3089: real time    0.3089

 eigenvalue-minimisations  :    64
 total energy-change (2. order) :-0.4232680E-04  (-0.2375894E-05)
 number of electron       8.0000002 magnetization 
 augmentation part        0.1845873 magnetization 

 Broyden mixing:
  rms(total) = 0.59836E-03    rms(broyden)= 0.59833E-03
  rms(prec ) = 0.83307E-03
  weight for this iteration     100.00

 eigenvalues of (default mixing * dielectric matrix)
  average eigenvalue GAMMA=   2.5769
  8.3867  5.2647  3.8878  2.5161  2.5161  1.8856  1.2911  1.2911  1.0715  0.9920
  0.9101  0.9101

 Free energy of the ion-electron system (eV)
  ---------------------------------------------------
  alpha Z        PSCENC =         0.24255617
  Ewald energy   TEWEN  =       128.12891168
  -Hartree energ DENC   =      -283.99912485
  -exchange      EXHF   =         0.00000000
  -V(xc)+E(xc)   XCENC  =        24.71569302
  PAW double counting   =       463.64326701     -464.42897876
  entropy T*S    EENTRO =        -0.00000000
  eigenvalues    EBANDS =       -89.35668488
  atomic energy  EATOM  =       197.04175453
  Solvation  Ediel_sol  =         0.00000000
  ---------------------------------------------------
  free energy    TOTEN  =       -24.01260609 eV

  energy without entropy =      -24.01260609  energy(sigma->0) =      -24.01260609


--------------------------------------------------------------------------------------------------------




--------------------------------------- Iteration      1(  18)  ---------------------------------------


    POTLOK:  cpu time    0.1150: real time    0.1150
    SETDIJ:  cpu time    0.0014: real time    0.0014
    EDDIAG:  cpu time    0.0312: real time    0.0312
  RMM-DIIS:  cpu time    0.1408: real time    0.1408
    ORTHCH:  cpu time    0.0014: real time    0.0014
       DOS:  cpu time    0.0002: real time    0.0002
    CHARGE:  cpu time    0.0156: real time    0.0156
    MIXING:  cpu time    0.0055: real time    0.0055
    --------------------------------------------
      LOOP:  cpu time    0.3111: real time    0.3111

 eigenvalue-minimisations  :    64
 total energy-change (2. order) :-0.7028547E-05  (-0.6942183E-06)
 number of electron       8.0000002 magnetization 
 augmentation part        0.1846033 magnetization 

 Broyden mixing:
  rms(total) = 0.77798E-04    rms(broyden)= 0.77645E-04
  rms(prec ) = 0.10659E-03
  weight for this iteration     100.00

 eigenvalues of (default mixing * dielectric matrix)
  average eigenvalue GAMMA=   2.6048
  8.4554  5.4570  3.8986  3.1239  2.3467  2.3467  1.7786  1.2663  1.2663  0.9039
  0.9840  0.9840  1.0508

 Free energy of the ion-electron system (eV)
  ---------------------------------------------------
  alpha Z        PSCENC =         0.24255617
  Ewald energy   TEWEN  =       128.12891168
  -Hartree energ DENC   =      -283.97789690
  -exchange      EXHF   =         0.00000000
  -V(xc)+E(xc)   XCENC  =        24.71469100
  PAW double counting   =       463.62834745     -464.41385135
  entropy T*S    EENTRO =        -0.00000000
  eigenvalues    EBANDS =       -89.37712569
  atomic energy  EATOM  =       197.04175453
  Solvation  Ediel_sol  =         0.00000000
  ---------------------------------------------------
  free energy    TOTEN  =       -24.01261312 eV

  energy without entropy =      -24.01261312  energy(sigma->0) =      -24.01261312


--------------------------------------------------------------------------------------------------------




--------------------------------------- Iteration      1(  19)  ---------------------------------------


    POTLOK:  cpu time    0.1164: real time    0.1164
    SETDIJ:  cpu time    0.0014: real time    0.0014
    EDDIAG:  cpu time    0.0313: real time    0.0313
  RMM-DIIS:  cpu time    0.1115: real time    0.1115
    ORTHCH:  cpu time    0.0013: real time    0.0013
       DOS:  cpu time    0.0002: real time    0.0002
    CHARGE:  cpu time    0.0156: real time    0.0156
    MIXING:  cpu time    0.0056: real time    0.0056
    --------------------------------------------
      LOOP:  cpu time    0.2834: real time    0.2834

 eigenvalue-minimisations  :    48
 total energy-change (2. order) :-0.3746587E-05  (-0.4068976E-07)
 number of electron       8.0000002 magnetization 
 augmentation part        0.1846068 magnetization 

 Broyden mixing:
  rms(total) = 0.68036E-04    rms(broyden)= 0.67999E-04
  rms(prec ) = 0.96896E-04
  weight for this iteration     100.00

 eigenvalues of (default mixing * dielectric matrix)
  average eigenvalue GAMMA=   2.5607
  8.5092  5.5827  3.9322  3.6282  2.4337  2.4337  1.9811  1.2653  1.2653  1.0281
  0.9227  0.9412  0.9633  0.9633

 Free energy of the ion-electron system (eV)
  ---------------------------------------------------
  alpha Z        PSCENC =         0.24255617
  Ewald energy   TEWEN  =       128.12891168
  -Hartree energ DENC   =      -283.97470064
  -exchange      EXHF   =         0.00000000
  -V(xc)+E(xc)   XCENC  =        24.71440590
  PAW double counting   =       463.60545221     -464.39095360
  entropy T*S    EENTRO =        -0.00000000
  eigenvalues    EBANDS =       -89.38004310
  atomic energy  EATOM  =       197.04175453
  Solvation  Ediel_sol  =         0.00000000
  ---------------------------------------------------
  free energy    TOTEN  =       -24.01261687 eV

  energy without entropy =      -24.01261687  energy(sigma->0) =      -24.01261687


--------------------------------------------------------------------------------------------------------




--------------------------------------- Iteration      1(  20)  ---------------------------------------


    POTLOK:  cpu time    0.1157: real time    0.1157
    SETDIJ:  cpu time    0.0014: real time    0.0014
    EDDIAG:  cpu time    0.0311: real time    0.0311
  RMM-DIIS:  cpu time    0.1076: real time    0.1076
    ORTHCH:  cpu time    0.0013: real time    0.0013
       DOS:  cpu time    0.0002: real time    0.0002
    --------------------------------------------
      LOOP:  cpu time    0.2573: real time    0.2574

 eigenvalue-minimisations  :    44
 total energy-change (2. order) :-0.8322013E-06  (-0.7715328E-08)
 number of electron       8.0000002 magnetization 
 augmentation part        0.1846068 magnetization 

 Free energy of the ion-electron system (eV)
  ---------------------------------------------------
  alpha Z        PSCENC =         0.24255617
  Ewald energy   TEWEN  =       128.12891168
  -Hartree energ DENC   =      -283.97592155
  -exchange      EXHF   =         0.00000000
  -V(xc)+E(xc)   XCENC  =        24.71443626
  PAW double counting   =       463.60464333     -464.39016752
  entropy T*S    EENTRO =        -0.00000000
  eigenvalues    EBANDS =       -89.37883059
  atomic energy  EATOM  =       197.04175453
  Solvation  Ediel_sol  =         0.00000000
  ---------------------------------------------------
  free energy    TOTEN  =       -24.01261770 eV

  energy without entropy =      -24.01261770  energy(sigma->0) =      -24.01261770


--------------------------------------------------------------------------------------------------------




 average (electrostatic) potential at core
  the test charge radii are     0.5201  0.6991
  (the norm of the test charge is              1.0000)
       1 -41.5435       2 -41.3802       3 -41.3811       4 -41.6118       5 -57.9775
 
 
 
 E-fermi :  -8.2913     XC(G=0):  -0.6993     alpha+bet : -0.2109


 k-point     1 :       0.2500    0.2500    0.2500
  band No.  band energies     occupation 
      1     -16.8660      2.00000
      2      -9.3253      2.00000
      3      -9.2828      2.00000
      4      -9.2153      2.00000
      5      -0.3204      0.00000
      6       0.5677      0.00000
      7       0.6699      0.00000
      8       0.7149      0.00000

 k-point     2 :      -0.2500    0.2500    0.2500
  band No.  band energies     occupation 
      1     -16.8660      2.00000
      2      -9.3253      2.00000
      3      -9.2828      2.00000
      4      -9.2154      2.00000
      5      -0.3176      0.00000
      6       0.5564      0.00000
      7       0.6652      0.00000
      8       0.7064      0.00000

 k-point     3 :       0.2500   -0.2500    0.2500
  band No.  band energies     occupation 
      1     -16.8661      2.00000
      2      -9.3253      2.00000
      3      -9.2828      2.00000
      4      -9.2153      2.00000
      5      -0.3175      0.00000
      6       0.5559      0.00000
      7       0.6671      0.00000
      8       0.7055      0.00000

 k-point     4 :      -0.2500   -0.2500    0.2500
  band No.  band energies     occupation 
      1     -16.8660      2.00000
      2      -9.3252      2.00000
      3      -9.2827      2.00000
      4      -9.2153      2.00000
      5      -0.3173      0.00000
      6       0.5627      0.00000
      7       0.6639      0.00000
      8       0.7029      0.00000


--------------------------------------------------------------------------------------------------------


 soft charge-density along one line, spin component           1
         0         1         2         3         4         5         6         7         8         9
 total charge-density along one line
 
 pseudopotential strength for first ion, spin component:           1
 -2.341  -4.035  -0.001  -0.001   0.001
 -4.035  -6.866  -0.003  -0.004   0.002
 -0.001  -0.003  -0.337   0.002  -0.001
 -0.001  -0.004   0.002  -0.335  -0.001
  0.001   0.002  -0.001  -0.001  -0.338
 total augmentation occupancy for first ion, spin component:           1
  3.571  -0.642   0.250   0.333  -0.137
 -0.642   0.130  -0.046  -0.062   0.025
  0.250  -0.046   0.024   0.019  -0.008
  0.333  -0.062   0.019   0.035  -0.011
 -0.137   0.025  -0.008  -0.011   0.014


------------------------ aborting loop because EDIFF is reached ----------------------------------------


    CHARGE:  cpu time    0.0151: real time    0.0151
    FORLOC:  cpu time    0.0102: real time    0.0102
    FORNL :  cpu time    0.0170: real time    0.0170
    STRESS:  cpu time    0.1356: real time    0.1356
    FORCOR:  cpu time    0.1173: real time    0.1173
    FORHAR:  cpu time    0.0360: real time    0.0360
    MIXING:  cpu time    0.0059: real time    0.0059
    OFIELD:  cpu time    0.0000: real time    0.0000

  FORCE on cell =-STRESS in cart. coord.  units (eV):
  Direction    XX          YY          ZZ          XY          YZ          ZX
  --------------------------------------------------------------------------------------
  Alpha Z     0.24256     0.24256     0.24256
  Ewald      41.17807    42.06534    44.88547    -0.42350     0.42058     0.79191
  Hartree    93.59488    93.42915    96.95494     0.15296     0.29759     0.28849
  E(xc)     -27.17507   -27.17367   -27.19478     0.00067     0.00295     0.00314
  Local    -193.84875  -194.18518  -200.45634     0.03175    -0.73135    -0.94523
  n-local   -15.77250   -15.81266   -15.92502     0.03431     0.01408    -0.00345
  augment     0.12040     0.11662     0.11363     0.00248     0.00049    -0.00105
  Kinetic   100.61801   100.57542   101.71212    -0.05931    -0.14892    -0.14951
  Fock        0.00000     0.00000     0.00000     0.00000     0.00000     0.00000
  -------------------------------------------------------------------------------------
  Total      -1.04241    -0.74242     0.33259    -0.26065    -0.14459    -0.01571
  in kB      -1.67223    -1.19099     0.53354    -0.41814    -0.23195    -0.02521
  external pressure =       -0.78 kB  Pullay stress =        0.00 kB

  kinetic pressure (ideal gas correction) =      0.00 kB
  total pressure  =     -0.78 kB
  Total+kin.    -1.672      -1.191       0.534      -0.418      -0.232      -0.025

 VOLUME and BASIS-vectors are now :
 -----------------------------------------------------------------------------
  energy-cutoff  :      400.00
  volume of cell :      998.74
      direct lattice vectors                 reciprocal lattice vectors
    10.110672251  0.000000000  0.000000000     0.098905392 -0.000837764 -0.000768643
     0.085786147 10.127809298  0.000000000     0.000000000  0.098738036 -0.000883533
     0.076538031  0.087276179  9.753429282     0.000000000  0.000000000  0.102528041

  length of vectors
    10.110672251 10.128172611  9.754120051     0.098911926  0.098741989  0.102528041


 FORCES acting on ions
    electron-ion (+dipol)            ewald-force                    non-local-force                 convergence-correction
 -----------------------------------------------------------------------------------------------
   -.166E+02 0.301E+02 0.405E+02   0.184E+02 -.333E+02 -.450E+02   -.175E+01 0.320E+01 0.424E+01   0.803E-04 -.148E-03 -.166E-03
   0.516E+02 -.608E+01 0.281E+01   -.563E+02 0.665E+01 -.306E+01   0.522E+01 -.598E+00 0.284E+00   -.243E-03 0.194E-04 -.838E-05
   -.234E+02 -.465E+02 0.121E+01   0.255E+02 0.507E+02 -.136E+01   -.237E+01 -.469E+01 0.106E+00   0.117E-03 0.216E-03 -.298E-05
   -.129E+02 0.251E+02 -.454E+02   0.144E+02 -.280E+02 0.508E+02   -.140E+01 0.272E+01 -.485E+01   0.613E-04 -.124E-03 0.190E-03
   0.162E+01 -.345E+01 0.119E+01   -.190E+01 0.399E+01 -.139E+01   -.971E-01 0.138E+00 -.545E-01   0.281E-04 -.705E-04 0.247E-04
 -----------------------------------------------------------------------------------------------
   0.398E+00 -.767E+00 0.275E+00   -.178E-14 0.000E+00 0.711E-14   -.398E+00 0.766E+00 -.275E+00   0.434E-04 -.107E-03 0.374E-04
 
 
 POSITION                                       TOTAL-FORCE (eV/Angst)
 -----------------------------------------------------------------------------------
      5.50289      4.15205      3.51303         0.057983     -0.012939     -0.274982
      4.05812      4.89917      4.28335         0.517938     -0.021488      0.035415
      5.66449      5.76545      4.31787        -0.263673     -0.468282     -0.046854
      5.42379      4.26263      5.26016         0.062537     -0.184934      0.538855
      5.16250      4.77161      4.34294        -0.375237      0.687112     -0.252134
 -----------------------------------------------------------------------------------
    total drift:                               -0.000452     -0.000531      0.000299


--------------------------------------------------------------------------------------------------------



  FREE ENERGIE OF THE ION-ELECTRON SYSTEM (eV)
  ---------------------------------------------------
  free  energy   TOTEN  =       -24.01261770 eV

  energy  without entropy=      -24.01261770  energy(sigma->0) =      -24.01261770
 


--------------------------------------------------------------------------------------------------------


    POTLOK:  cpu time    0.1190: real time    0.1190


--------------------------------------------------------------------------------------------------------


           RANDOM_SEED =         172264930                0                0
           RANDOM_SEED =         172264930               30                0
   IONSTEP:  cpu time    0.0023: real time    0.0023

  ENERGY OF THE ELECTRON-ION-THERMOSTAT SYSTEM (eV)
  ---------------------------------------------------
% ion-electron   TOTEN  =       -24.012618  see above
  kinetic energy EKIN   =         0.000311
  kin. lattice  EKIN_LAT=         0.000000  (temperature    0.60 K)
  nose potential ES     =         0.000000
  nose kinetic   EPS    =         0.000000
  ---------------------------------------------------
  total energy   ETOTAL =       -24.012306 eV

  maximum distance moved by ions :      0.14E-03

    WAVPRE:  cpu time    0.0352: real time    0.0352
    FEWALD:  cpu time    0.0003: real time    0.0002
    ORTHCH:  cpu time    0.0077: real time    0.0078
     LOOP+:  cpu time    6.1950: real time    6.1979


--------------------------------------- Iteration      2(   1)  ---------------------------------------


    POTLOK:  cpu time    0.1187: real time    0.1187
    SETDIJ:  cpu time    0.0014: real time    0.0014
     EDDAV:  cpu time    0.1725: real time    0.1725
       DOS:  cpu time    0.0002: real time    0.0002
    CHARGE:  cpu time    0.0153: real time    0.0154
    MIXING:  cpu time    0.0051: real time    0.0051
    --------------------------------------------
      LOOP:  cpu time    0.3133: real time    0.3133

 eigenvalue-minimisations  :    88
 total energy-change (2. order) :-0.2378147E-02  (-0.2586157E-03)
 number of electron       8.0000002 magnetization 
 augmentation part        0.1846430 magnetization 

 Broyden mixing:
  rms(total) = 0.21223E-02    rms(broyden)= 0.21202E-02
  rms(prec ) = 0.24687E-02
  weight for this iteration     100.00

 Free energy of the ion-electron system (eV)
  ---------------------------------------------------
  alpha Z        PSCENC =         0.24255617
  Ewald energy   TEWEN  =       128.15887362
  -Hartree energ DENC   =      -283.99957963
  -exchange      EXHF   =         0.00000000
  -V(xc)+E(xc)   XCENC  =        24.71561099
  PAW double counting   =       463.60669637     -464.39224017
  entropy T*S    EENTRO =        -0.00000000
  eigenvalues    EBANDS =       -89.38866688
  atomic energy  EATOM  =       197.04175453
  Solvation  Ediel_sol  =         0.00000000
  ---------------------------------------------------
  free energy    TOTEN  =       -24.01499501 eV

  energy without entropy =      -24.01499501  energy(sigma->0) =      -24.01499501


--------------------------------------------------------------------------------------------------------




--------------------------------------- Iteration      2(   2)  ---------------------------------------


    POTLOK:  cpu time    0.1203: real time    0.1203
    SETDIJ:  cpu time    0.0015: real time    0.0014
    EDDIAG:  cpu time    0.0313: real time    0.0313
  RMM-DIIS:  cpu time    0.1417: real time    0.1417
    ORTHCH:  cpu time    0.0014: real time    0.0014
       DOS:  cpu time    0.0002: real time    0.0002
    CHARGE:  cpu time    0.0157: real time    0.0157
    MIXING:  cpu time    0.0038: real time    0.0038
    --------------------------------------------
      LOOP:  cpu time    0.3158: real time    0.3158

 eigenvalue-minimisations  :    64
 total energy-change (2. order) :-0.1393036E-05  (-0.8470998E-05)
 number of electron       8.0000002 magnetization 
 augmentation part        0.1846399 magnetization 

 Broyden mixing:
  rms(total) = 0.14151E-02    rms(broyden)= 0.14144E-02
  rms(prec ) = 0.16424E-02
  weight for this iteration     100.00

 eigenvalues of (default mixing * dielectric matrix)
  average eigenvalue GAMMA=   2.0785
  2.0785

 Free energy of the ion-electron system (eV)
  ---------------------------------------------------
  alpha Z        PSCENC =         0.24255617
  Ewald energy   TEWEN  =       128.15887362
  -Hartree energ DENC   =      -284.00443920
  -exchange      EXHF   =         0.00000000
  -V(xc)+E(xc)   XCENC  =        24.71586393
  PAW double counting   =       463.69217673     -464.47776713
  entropy T*S    EENTRO =        -0.00000000
  eigenvalues    EBANDS =       -89.38401505
  atomic energy  EATOM  =       197.04175453
  Solvation  Ediel_sol  =         0.00000000
  ---------------------------------------------------
  free energy    TOTEN  =       -24.01499641 eV

  energy without entropy =      -24.01499641  energy(sigma->0) =      -24.01499641


--------------------------------------------------------------------------------------------------------




--------------------------------------- Iteration      2(   3)  ---------------------------------------


    POTLOK:  cpu time    0.1209: real time    0.1209
    SETDIJ:  cpu time    0.0014: real time    0.0014
    EDDIAG:  cpu time    0.0313: real time    0.0313
  RMM-DIIS:  cpu time    0.1420: real time    0.1420
    ORTHCH:  cpu time    0.0013: real time    0.0013
       DOS:  cpu time    0.0002: real time    0.0002
    CHARGE:  cpu time    0.0157: real time    0.0157
    MIXING:  cpu time    0.0039: real time    0.0039
    --------------------------------------------
      LOOP:  cpu time    0.3168: real time    0.3168

 eigenvalue-minimisations  :    64
 total energy-change (2. order) : 0.7466282E-06  (-0.1155546E-05)
 number of electron       8.0000002 magnetization 
 augmentation part        0.1846351 magnetization 

 Broyden mixing:
  rms(total) = 0.20666E-03    rms(broyden)= 0.20599E-03
  rms(prec ) = 0.26964E-03
  weight for this iteration     100.00

 eigenvalues of (default mixing * dielectric matrix)
  average eigenvalue GAMMA=   1.6607
  1.0406  2.2807

 Free energy of the ion-electron system (eV)
  ---------------------------------------------------
  alpha Z        PSCENC =         0.24255617
  Ewald energy   TEWEN  =       128.15887362
  -Hartree energ DENC   =      -284.00802332
  -exchange      EXHF   =         0.00000000
  -V(xc)+E(xc)   XCENC  =        24.71605022
  PAW double counting   =       463.74820777     -464.53383456
  entropy T*S    EENTRO =        -0.00000000
  eigenvalues    EBANDS =       -89.38058008
  atomic energy  EATOM  =       197.04175453
  Solvation  Ediel_sol  =         0.00000000
  ---------------------------------------------------
  free energy    TOTEN  =       -24.01499566 eV

  energy without entropy =      -24.01499566  energy(sigma->0) =      -24.01499566


--------------------------------------------------------------------------------------------------------




--------------------------------------- Iteration      2(   4)  ---------------------------------------


    POTLOK:  cpu time    0.1215: real time    0.1215
    SETDIJ:  cpu time    0.0015: real time    0.0015
    EDDIAG:  cpu time    0.0312: real time    0.0312
  RMM-DIIS:  cpu time    0.1130: real time    0.1131
    ORTHCH:  cpu time    0.0014: real time    0.0014
       DOS:  cpu time    0.0002: real time    0.0002
    --------------------------------------------
      LOOP:  cpu time    0.2687: real time    0.2687

 eigenvalue-minimisations  :    48
 total energy-change (2. order) : 0.1193931E-06  (-0.3163451E-07)
 number of electron       8.0000002 magnetization 
 augmentation part        0.1846351 magnetization 

 Free energy of the ion-electron system (eV)
  ---------------------------------------------------
  alpha Z        PSCENC =         0.24255617
  Ewald energy   TEWEN  =       128.15887362
  -Hartree energ DENC   =      -284.00689265
  -exchange      EXHF   =         0.00000000
  -V(xc)+E(xc)   XCENC  =        24.71600179
  PAW double counting   =       463.74547881     -464.53109083
  entropy T*S    EENTRO =        -0.00000000
  eigenvalues    EBANDS =       -89.38167697
  atomic energy  EATOM  =       197.04175453
  Solvation  Ediel_sol  =         0.00000000
  ---------------------------------------------------
  free energy    TOTEN  =       -24.01499554 eV

  energy without entropy =      -24.01499554  energy(sigma->0) =      -24.01499554


--------------------------------------------------------------------------------------------------------




 average (electrostatic) potential at core
  the test charge radii are     0.5201  0.6991
  (the norm of the test charge is              1.0000)
       1 -41.5383       2 -41.3889       3 -41.3900       4 -41.5996       5 -57.9758
 
 
 
 E-fermi :  -8.2934     XC(G=0):  -0.7018     alpha+bet : -0.2109


 k-point     1 :       0.2500    0.2500    0.2500
  band No.  band energies     occupation 
      1     -16.8663      2.00000
      2      -9.3247      2.00000
      3      -9.2812      2.00000
      4      -9.2188      2.00000
      5      -0.3206      0.00000
      6       0.5693      0.00000
      7       0.6699      0.00000
      8       0.7107      0.00000

 k-point     2 :      -0.2500    0.2500    0.2500
  band No.  band energies     occupation 
      1     -16.8663      2.00000
      2      -9.3247      2.00000
      3      -9.2811      2.00000
      4      -9.2188      2.00000
      5      -0.3178      0.00000
      6       0.5583      0.00000
      7       0.6643      0.00000
      8       0.7026      0.00000

 k-point     3 :       0.2500   -0.2500    0.2500
  band No.  band energies     occupation 
      1     -16.8663      2.00000
      2      -9.3247      2.00000
      3      -9.2812      2.00000
      4      -9.2188      2.00000
      5      -0.3177      0.00000
      6       0.5577      0.00000
      7       0.6666      0.00000
      8       0.7015      0.00000

 k-point     4 :      -0.2500   -0.2500    0.2500
  band No.  band energies     occupation 
      1     -16.8662      2.00000
      2      -9.3246      2.00000
      3      -9.2810      2.00000
      4      -9.2188      2.00000
      5      -0.3174      0.00000
      6       0.5634      0.00000
      7       0.6639      0.00000
      8       0.6993      0.00000


--------------------------------------------------------------------------------------------------------


 soft charge-density along one line, spin component           1
         0         1         2         3         4         5         6         7         8         9
 total charge-density along one line
 
 pseudopotential strength for first ion, spin component:           1
 -2.341  -4.034  -0.001  -0.001   0.001
 -4.034  -6.866  -0.003  -0.004   0.002
 -0.001  -0.003  -0.337   0.002  -0.001
 -0.001  -0.004   0.002  -0.336  -0.001
  0.001   0.002  -0.001  -0.001  -0.338
 total augmentation occupancy for first ion, spin component:           1
  3.569  -0.642   0.250   0.333  -0.137
 -0.642   0.130  -0.046  -0.062   0.025
  0.250  -0.046   0.024   0.019  -0.008
  0.333  -0.062   0.019   0.035  -0.011
 -0.137   0.025  -0.008  -0.011   0.014


------------------------ aborting loop because EDIFF is reached ----------------------------------------


    CHARGE:  cpu time    0.0154: real time    0.0154
    FORLOC:  cpu time    0.0100: real time    0.0100
    FORNL :  cpu time    0.0171: real time    0.0171
    STRESS:  cpu time    0.1364: real time    0.1364
    FORCOR:  cpu time    0.1183: real time    0.1183
    FORHAR:  cpu time    0.0383: real time    0.0383
    MIXING:  cpu time    0.0054: real time    0.0054
    OFIELD:  cpu time    0.0000: real time    0.0000

  FORCE on cell =-STRESS in cart. coord.  units (eV):
  Direction    XX          YY          ZZ          XY          YZ          ZX
  --------------------------------------------------------------------------------------
  Alpha Z     0.24256     0.24256     0.24256
  Ewald      41.24050    42.06978    44.84856    -0.38201     0.42825     0.77353
  Hartree    93.58446    93.42592    96.99469     0.14709     0.29202     0.28614
  E(xc)     -27.17703   -27.17554   -27.19590     0.00056     0.00284     0.00310
  Local    -193.86753  -194.17995  -200.49757     0.01630    -0.72586    -0.93000
  n-local   -15.78002   -15.81701   -15.92133     0.03178     0.01300    -0.00309
  augment     0.12002     0.11650     0.11403     0.00227     0.00040    -0.00100
  Kinetic   100.64196   100.59416   101.69033    -0.05352    -0.14361    -0.14731
  Fock        0.00000     0.00000     0.00000     0.00000     0.00000     0.00000
  -------------------------------------------------------------------------------------
  Total      -0.99509    -0.72358     0.27536    -0.23754    -0.13297    -0.01863
  in kB      -1.59632    -1.16077     0.44174    -0.38106    -0.21331    -0.02989
  external pressure =       -0.77 kB  Pullay stress =        0.00 kB

  kinetic pressure (ideal gas correction) =      0.00 kB
  total pressure  =     -0.77 kB
  Total+kin.    -1.595      -1.160       0.443      -0.381      -0.214      -0.030

 VOLUME and BASIS-vectors are now :
 -----------------------------------------------------------------------------
  energy-cutoff  :      400.00
  volume of cell :      998.74
      direct lattice vectors                 reciprocal lattice vectors
    10.110672251  0.000000000  0.000000000     0.098905392 -0.000837764 -0.000768643
     0.085786147 10.127809298  0.000000000     0.000000000  0.098738036 -0.000883533
     0.076538031  0.087276179  9.753429282     0.000000000  0.000000000  0.102528041

  length of vectors
    10.110672251 10.128172611  9.754120051     0.098911926  0.098741989  0.102528041


 FORCES acting on ions
    electron-ion (+dipol)            ewald-force                    non-local-force                 convergence-correction
 -----------------------------------------------------------------------------------------------
   -.166E+02 0.301E+02 0.404E+02   0.184E+02 -.333E+02 -.449E+02   -.175E+01 0.320E+01 0.424E+01   -.307E-03 0.597E-03 -.123E-03
   0.517E+02 -.608E+01 0.281E+01   -.565E+02 0.666E+01 -.306E+01   0.524E+01 -.600E+00 0.285E+00   0.109E-03 0.512E-03 -.163E-03
   -.234E+02 -.466E+02 0.122E+01   0.256E+02 0.508E+02 -.137E+01   -.238E+01 -.471E+01 0.108E+00   -.465E-03 0.194E-03 -.181E-03
   -.129E+02 0.251E+02 -.454E+02   0.143E+02 -.280E+02 0.507E+02   -.139E+01 0.270E+01 -.483E+01   -.274E-03 0.529E-03 -.146E-03
   0.153E+01 -.327E+01 0.112E+01   -.179E+01 0.377E+01 -.130E+01   -.809E-01 0.107E+00 -.419E-01   -.163E-02 0.321E-02 -.122E-02
 -----------------------------------------------------------------------------------------------
   0.365E+00 -.704E+00 0.250E+00   0.178E-14 0.000E+00 0.000E+00   -.363E+00 0.697E+00 -.248E+00   -.257E-02 0.504E-02 -.183E-02
 
 
 POSITION                                       TOTAL-FORCE (eV/Angst)
 -----------------------------------------------------------------------------------
      5.50303      4.15202      3.51237         0.052320     -0.004560     -0.256516
      4.05936      4.89911      4.28344         0.478205     -0.018233      0.033340
      5.66385      5.76432      4.31775        -0.244093     -0.431864     -0.046358
[...]

  ENERGY OF THE ELECTRON-ION-THERMOSTAT SYSTEM (eV)
  ---------------------------------------------------
% ion-electron   TOTEN  =       -24.019993  see above
  kinetic energy EKIN   =         0.007557
  kin. lattice  EKIN_LAT=         0.000000  (temperature   14.62 K)
  nose potential ES     =         0.000000
  nose kinetic   EPS    =         0.000000
  ---------------------------------------------------
  total energy   ETOTAL =       -24.012436 eV

  maximum distance moved by ions :      0.30E-03

    WAVPRE:  cpu time    0.0402: real time    0.0402
    FEWALD:  cpu time    0.0003: real time    0.0003
    ORTHCH:  cpu time    0.0077: real time    0.0077
 Prediction of Wavefunctions ALPHA= 2.180 BETA=-1.216
     LOOP+:  cpu time    1.9113: real time    1.9114


--------------------------------------- Iteration     10(   1)  ---------------------------------------


    POTLOK:  cpu time    0.1170: real time    0.1170
    SETDIJ:  cpu time    0.0014: real time    0.0014
     EDDAV:  cpu time    0.1398: real time    0.1398
       DOS:  cpu time    0.0002: real time    0.0002
    CHARGE:  cpu time    0.0152: real time    0.0152
    MIXING:  cpu time    0.0038: real time    0.0038
    --------------------------------------------
      LOOP:  cpu time    0.2775: real time    0.2775

 eigenvalue-minimisations  :    64
 total energy-change (2. order) : 0.3379745E-02  (-0.3255271E-04)
 number of electron       8.0000005 magnetization 
 augmentation part        0.1858064 magnetization 

 Broyden mixing:
  rms(total) = 0.12295E-03    rms(broyden)= 0.12259E-03
  rms(prec ) = 0.15376E-03
  weight for this iteration     100.00

 Free energy of the ion-electron system (eV)
  ---------------------------------------------------
  alpha Z        PSCENC =         0.24255617
  Ewald energy   TEWEN  =       129.15989279
  -Hartree energ DENC   =      -284.88344831
  -exchange      EXHF   =         0.00000000
  -V(xc)+E(xc)   XCENC  =        24.76253720
  PAW double counting   =       469.91498670     -470.70414558
  entropy T*S    EENTRO =        -0.00000000
  eigenvalues    EBANDS =       -89.55074671
  atomic energy  EATOM  =       197.04175453
  Solvation  Ediel_sol  =         0.00000000
  ---------------------------------------------------
  free energy    TOTEN  =       -24.01661320 eV

  energy without entropy =      -24.01661320  energy(sigma->0) =      -24.01661320


--------------------------------------------------------------------------------------------------------




--------------------------------------- Iteration     10(   2)  ---------------------------------------


    POTLOK:  cpu time    0.1149: real time    0.1158
    SETDIJ:  cpu time    0.0015: real time    0.0015
    EDDIAG:  cpu time    0.0308: real time    0.0308
  RMM-DIIS:  cpu time    0.1401: real time    0.1401
    ORTHCH:  cpu time    0.0013: real time    0.0013
       DOS:  cpu time    0.0002: real time    0.0002
    CHARGE:  cpu time    0.0156: real time    0.0156
    MIXING:  cpu time    0.0039: real time    0.0039
    --------------------------------------------
      LOOP:  cpu time    0.3084: real time    0.3093

 eigenvalue-minimisations  :    64
 total energy-change (2. order) :-0.1164477E-05  (-0.5167438E-06)
 number of electron       8.0000005 magnetization 
 augmentation part        0.1858071 magnetization 

 Broyden mixing:
  rms(total) = 0.12661E-03    rms(broyden)= 0.12639E-03
  rms(prec ) = 0.14642E-03
  weight for this iteration     100.00

 eigenvalues of (default mixing * dielectric matrix)
  average eigenvalue GAMMA=   0.4831
  0.4831

 Free energy of the ion-electron system (eV)
  ---------------------------------------------------
  alpha Z        PSCENC =         0.24255617
  Ewald energy   TEWEN  =       129.15989279
  -Hartree energ DENC   =      -284.88471386
  -exchange      EXHF   =         0.00000000
  -V(xc)+E(xc)   XCENC  =        24.76257803
  PAW double counting   =       469.90336040     -470.69251494
  entropy T*S    EENTRO =        -0.00000000
  eigenvalues    EBANDS =       -89.54952748
  atomic energy  EATOM  =       197.04175453
  Solvation  Ediel_sol  =         0.00000000
  ---------------------------------------------------
  free energy    TOTEN  =       -24.01661437 eV

  energy without entropy =      -24.01661437  energy(sigma->0) =      -24.01661437


--------------------------------------------------------------------------------------------------------




--------------------------------------- Iteration     10(   3)  ---------------------------------------


    POTLOK:  cpu time    0.1159: real time    0.1159
    SETDIJ:  cpu time    0.0014: real time    0.0014
    EDDIAG:  cpu time    0.0309: real time    0.0309
  RMM-DIIS:  cpu time    0.1117: real time    0.1117
    ORTHCH:  cpu time    0.0014: real time    0.0014
       DOS:  cpu time    0.0002: real time    0.0002
    CHARGE:  cpu time    0.0155: real time    0.0155
    MIXING:  cpu time    0.0040: real time    0.0040
    --------------------------------------------
      LOOP:  cpu time    0.2810: real time    0.2810

 eigenvalue-minimisations  :    48
 total energy-change (2. order) :-0.2629110E-06  (-0.1034292E-07)
 number of electron       8.0000005 magnetization 
 augmentation part        0.1858069 magnetization 

 Broyden mixing:
  rms(total) = 0.10896E-03    rms(broyden)= 0.10895E-03
  rms(prec ) = 0.12703E-03
  weight for this iteration     100.00

 eigenvalues of (default mixing * dielectric matrix)
  average eigenvalue GAMMA=   1.8843
  1.0780  2.6905

 Free energy of the ion-electron system (eV)
  ---------------------------------------------------
  alpha Z        PSCENC =         0.24255617
  Ewald energy   TEWEN  =       129.15989279
  -Hartree energ DENC   =      -284.88425419
  -exchange      EXHF   =         0.00000000
  -V(xc)+E(xc)   XCENC  =        24.76256338
  PAW double counting   =       469.88509309     -470.67424188
  entropy T*S    EENTRO =        -0.00000000
  eigenvalues    EBANDS =       -89.54997853
  atomic energy  EATOM  =       197.04175453
  Solvation  Ediel_sol  =         0.00000000
  ---------------------------------------------------
  free energy    TOTEN  =       -24.01661463 eV

  energy without entropy =      -24.01661463  energy(sigma->0) =      -24.01661463


--------------------------------------------------------------------------------------------------------




--------------------------------------- Iteration     10(   4)  ---------------------------------------


    POTLOK:  cpu time    0.1174: real time    0.1174
    SETDIJ:  cpu time    0.0015: real time    0.0015
    EDDIAG:  cpu time    0.0308: real time    0.0308
  RMM-DIIS:  cpu time    0.1128: real time    0.1129
    ORTHCH:  cpu time    0.0015: real time    0.0015
       DOS:  cpu time    0.0002: real time    0.0002
    CHARGE:  cpu time    0.0155: real time    0.0155
    MIXING:  cpu time    0.0041: real time    0.0041
    --------------------------------------------
      LOOP:  cpu time    0.2838: real time    0.2838

 eigenvalue-minimisations  :    48
 total energy-change (2. order) :-0.1341269E-05  (-0.2533503E-07)
 number of electron       8.0000005 magnetization 
 augmentation part        0.1858097 magnetization 

 Broyden mixing:
  rms(total) = 0.48808E-04    rms(broyden)= 0.48797E-04
  rms(prec ) = 0.70001E-04
  weight for this iteration     100.00

 eigenvalues of (default mixing * dielectric matrix)
  average eigenvalue GAMMA=   1.5066
  3.0570  0.9572  0.5055

 Free energy of the ion-electron system (eV)
  ---------------------------------------------------
  alpha Z        PSCENC =         0.24255617
  Ewald energy   TEWEN  =       129.15989279
  -Hartree energ DENC   =      -284.88194303
  -exchange      EXHF   =         0.00000000
  -V(xc)+E(xc)   XCENC  =        24.76249255
  PAW double counting   =       469.79862809     -470.58774827
  entropy T*S    EENTRO =        -0.00000000
  eigenvalues    EBANDS =       -89.55224880
  atomic energy  EATOM  =       197.04175453
  Solvation  Ediel_sol  =         0.00000000
  ---------------------------------------------------
  free energy    TOTEN  =       -24.01661597 eV

  energy without entropy =      -24.01661597  energy(sigma->0) =      -24.01661597


--------------------------------------------------------------------------------------------------------




--------------------------------------- Iteration     10(   5)  ---------------------------------------


    POTLOK:  cpu time    0.1170: real time    0.1170
    SETDIJ:  cpu time    0.0015: real time    0.0015
    EDDIAG:  cpu time    0.0309: real time    0.0309
  RMM-DIIS:  cpu time    0.1053: real time    0.1053
    ORTHCH:  cpu time    0.0014: real time    0.0014
       DOS:  cpu time    0.0002: real time    0.0002
    --------------------------------------------
      LOOP:  cpu time    0.2562: real time    0.2562

 eigenvalue-minimisations  :    41
 total energy-change (2. order) :-0.2238028E-06  (-0.2502245E-08)
 number of electron       8.0000005 magnetization 
 augmentation part        0.1858097 magnetization 

 Free energy of the ion-electron system (eV)
  ---------------------------------------------------
  alpha Z        PSCENC =         0.24255617
  Ewald energy   TEWEN  =       129.15989279
  -Hartree energ DENC   =      -284.88211369
  -exchange      EXHF   =         0.00000000
  -V(xc)+E(xc)   XCENC  =        24.76250424
  PAW double counting   =       469.79139937     -470.58052106
  entropy T*S    EENTRO =        -0.00000000
  eigenvalues    EBANDS =       -89.55208854
  atomic energy  EATOM  =       197.04175453
  Solvation  Ediel_sol  =         0.00000000
  ---------------------------------------------------
  free energy    TOTEN  =       -24.01661620 eV

  energy without entropy =      -24.01661620  energy(sigma->0) =      -24.01661620


--------------------------------------------------------------------------------------------------------




 average (electrostatic) potential at core
  the test charge radii are     0.5201  0.6991
  (the norm of the test charge is              1.0000)
       1 -41.4298       2 -41.6158       3 -41.6222       4 -41.3565       5 -57.9513
 
 
 
 E-fermi :  -8.2330     XC(G=0):  -0.6945     alpha+bet : -0.2109


 k-point     1 :       0.2500    0.2500    0.2500
  band No.  band energies     occupation 
      1     -16.8972      2.00000
      2      -9.3840      2.00000
      3      -9.3063      2.00000
      4      -9.1886      2.00000
      5      -0.3130      0.00000
      6       0.5763      0.00000
      7       0.6749      0.00000
      8       0.7194      0.00000

 k-point     2 :      -0.2500    0.2500    0.2500
  band No.  band energies     occupation 
      1     -16.8972      2.00000
      2      -9.3840      2.00000
      3      -9.3063      2.00000
      4      -9.1885      2.00000
      5      -0.3097      0.00000
      6       0.5587      0.00000
      7       0.6751      0.00000
      8       0.7096      0.00000

 k-point     3 :       0.2500   -0.2500    0.2500
  band No.  band energies     occupation 
      1     -16.8973      2.00000
      2      -9.3839      2.00000
      3      -9.3063      2.00000
      4      -9.1886      2.00000
      5      -0.3093      0.00000
      6       0.5570      0.00000
      7       0.6772      0.00000
      8       0.7080      0.00000

 k-point     4 :      -0.2500   -0.2500    0.2500
  band No.  band energies     occupation 
      1     -16.8972      2.00000
      2      -9.3838      2.00000
      3      -9.3062      2.00000
      4      -9.1885      2.00000
      5      -0.3096      0.00000
      6       0.5686      0.00000
      7       0.6692      0.00000
      8       0.7090      0.00000


--------------------------------------------------------------------------------------------------------


 soft charge-density along one line, spin component           1
         0         1         2         3         4         5         6         7         8         9
 total charge-density along one line
 
 pseudopotential strength for first ion, spin component:           1
 -2.340  -4.033  -0.001  -0.001   0.001
 -4.033  -6.862  -0.003  -0.004   0.002
 -0.001  -0.003  -0.338   0.002  -0.001
 -0.001  -0.004   0.002  -0.336  -0.001
  0.001   0.002  -0.001  -0.001  -0.339
 total augmentation occupancy for first ion, spin component:           1
  3.518  -0.634   0.236   0.323  -0.132
 -0.634   0.128  -0.044  -0.060   0.024
  0.236  -0.044   0.022   0.018  -0.007
  0.323  -0.060   0.018   0.034  -0.010
 -0.132   0.024  -0.007  -0.010   0.013


------------------------ aborting loop because EDIFF is reached ----------------------------------------


    CHARGE:  cpu time    0.0151: real time    0.0151
    FORLOC:  cpu time    0.0100: real time    0.0100
    FORNL :  cpu time    0.0170: real time    0.0170
    STRESS:  cpu time    0.1350: real time    0.1350
    FORCOR:  cpu time    0.1190: real time    0.1190
    FORHAR:  cpu time    0.0385: real time    0.0385
    MIXING:  cpu time    0.0047: real time    0.0047
    OFIELD:  cpu time    0.0000: real time    0.0000

  FORCE on cell =-STRESS in cart. coord.  units (eV):
  Direction    XX          YY          ZZ          XY          YZ          ZX
  --------------------------------------------------------------------------------------
  Alpha Z     0.24256     0.24256     0.24256
  Ewald      42.59150    41.92273    44.64562     0.60455     0.44016     0.19539
  Hartree    93.42381    93.35233    98.10920     0.04844     0.15121     0.17350
  E(xc)     -27.23483   -27.23247   -27.23238    -0.00131     0.00007     0.00084
  Local    -194.29516  -193.82408  -202.13457    -0.41666    -0.48674    -0.37618
  n-local   -15.99272   -15.95785   -15.87983    -0.02622    -0.01028     0.00354
  augment     0.11029     0.11311     0.12135    -0.00245    -0.00091     0.00009
  Kinetic   101.35707   101.23909   101.23730     0.06270    -0.00286    -0.04093
  Fock        0.00000     0.00000     0.00000     0.00000     0.00000     0.00000
  -------------------------------------------------------------------------------------
  Total       0.20251    -0.14458    -0.89075     0.26904     0.09066    -0.04375
  in kB       0.32487    -0.23193    -1.42893     0.43159     0.14544    -0.07018
  external pressure =       -0.45 kB  Pullay stress =        0.00 kB

  kinetic pressure (ideal gas correction) =      0.01 kB
  total pressure  =     -0.44 kB
  Total+kin.     0.330      -0.228      -1.420       0.434       0.145      -0.070

 VOLUME and BASIS-vectors are now :
 -----------------------------------------------------------------------------
  energy-cutoff  :      400.00
  volume of cell :      998.74
      direct lattice vectors                 reciprocal lattice vectors
    10.110672251  0.000000000  0.000000000     0.098905392 -0.000837764 -0.000768643
     0.085786147 10.127809298  0.000000000     0.000000000  0.098738036 -0.000883533
     0.076538031  0.087276179  9.753429282     0.000000000  0.000000000  0.102528041

  length of vectors
    10.110672251 10.128172611  9.754120051     0.098911926  0.098741989  0.102528041


 FORCES acting on ions
    electron-ion (+dipol)            ewald-force                    non-local-force                 convergence-correction
 -----------------------------------------------------------------------------------------------
   -.164E+02 0.294E+02 0.403E+02   0.180E+02 -.323E+02 -.443E+02   -.168E+01 0.302E+01 0.413E+01   0.121E-03 -.212E-03 -.249E-03
   0.531E+02 -.623E+01 0.279E+01   -.593E+02 0.695E+01 -.311E+01   0.568E+01 -.657E+00 0.298E+00   -.355E-03 0.234E-04 -.911E-05
   -.241E+02 -.478E+02 0.145E+01   0.270E+02 0.534E+02 -.163E+01   -.259E+01 -.512E+01 0.150E+00   0.184E-03 0.323E-03 0.417E-05
   -.123E+02 0.243E+02 -.444E+02   0.135E+02 -.265E+02 0.485E+02   -.125E+01 0.245E+01 -.447E+01   0.105E-03 -.194E-03 0.328E-03
   -.641E+00 0.114E+01 -.408E+00   0.855E+00 -.155E+01 0.542E+00   0.245E+00 -.497E+00 0.172E+00   0.264E-04 -.551E-04 0.258E-04
 -----------------------------------------------------------------------------------------------
   -.409E+00 0.797E+00 -.274E+00   0.000E+00 -.355E-14 0.000E+00   0.409E+00 -.797E+00 0.274E+00   0.812E-04 -.115E-03 0.995E-04
 
 
 POSITION                                       TOTAL-FORCE (eV/Angst)
 -----------------------------------------------------------------------------------
      5.50567      4.15575      3.49474        -0.067290      0.142433      0.150655
      4.08809      4.89901      4.28579        -0.498713      0.062088     -0.022520
      5.64868      5.73858      4.31309         0.234714      0.462929     -0.024939
      5.42453      4.25545      5.29160        -0.128205      0.241840     -0.409178
      5.16103      4.77415      4.34204         0.459391     -0.909278      0.306027
 -----------------------------------------------------------------------------------
    total drift:                               -0.000102      0.000013      0.000045


--------------------------------------------------------------------------------------------------------



  FREE ENERGIE OF THE ION-ELECTRON SYSTEM (eV)
  ---------------------------------------------------
  free  energy   TOTEN  =       -24.01661620 eV

  energy  without entropy=      -24.01661620  energy(sigma->0) =      -24.01661620
 
 d Force =-0.3377969E-02[-0.373E-02,-0.303E-02]  d Energy =-0.3377074E-02-0.895E-06
 d Force =-0.1092066E+00[-0.110E+00,-0.109E+00]  d Ewald  =-0.1092059E+00-0.611E-06


--------------------------------------------------------------------------------------------------------


    POTLOK:  cpu time    0.1199: real time    0.1199


--------------------------------------------------------------------------------------------------------


           RANDOM_SEED =         172264930               30                0
   IONSTEP:  cpu time    0.0001: real time    0.0001

  ENERGY OF THE ELECTRON-ION-THERMOSTAT SYSTEM (eV)
  ---------------------------------------------------
% ion-electron   TOTEN  =       -24.016616  see above
  kinetic energy EKIN   =         0.004257
  kin. lattice  EKIN_LAT=         0.000000  (temperature    8.23 K)
  nose potential ES     =         0.000000
  nose kinetic   EPS    =         0.000000
  ---------------------------------------------------
  total energy   ETOTAL =       -24.012359 eV

  maximum distance moved by ions :      0.25E-03


 mean value of Nose-termostat <S>:     1.000 mean value of <T> :    16.886
 mean temperature <T/S>/<1/S>  :    16.886

    WAVPRE:  cpu time    0.0436: real time    0.0436
    FEWALD:  cpu time    0.0002: real time    0.0002
    ORTHCH:  cpu time    0.0078: real time    0.0078
 Prediction of Wavefunctions ALPHA= 2.106 BETA=-1.131
    POTLOK:  cpu time    0.1181: real time    0.1181
    EDDIAG:  cpu time    0.0317: real time    0.0318
     LOOP+:  cpu time    2.0720: real time    2.0730
    4ORBIT:  cpu time    0.0000: real time    0.0000

 total amount of memory used by VASP MPI-rank0    54683. kBytes
=======================================================================

   base      :      30000. kBytes
   nonl-proj :       2694. kBytes
   fftplans  :       7853. kBytes
   grid      :      12378. kBytes
   one-center:          6. kBytes
   wavefun   :       1752. kBytes
 
  
  
 General timing and accounting informations for this job:
 ========================================================
  
                  Total CPU time used (sec):       24.012
                            User time (sec):       22.763
                          System time (sec):        1.248
                         Elapsed time (sec):       24.266
  
                   Maximum memory used (kb):      176912.
                   Average memory used (kb):           0.
  
                          Minor page faults:       236954
                          Major page faults:            3
                 Voluntary context switches:           76
