LAMMPS Description

     1536  atoms

     2  atom types

  0.0 30 xlo xhi
  0.0 30 ylo yhi
  0.0 30 zlo zhi

Masses

1 15.9994  # O
2 1.008  # H

Atoms  # full

1 1 1 -1.1794 0.0 0.0 0.0
2 1 2 0.5897 0.8164904 0.0 0.577359
3 1 2 0.5897 -0.8164904 0.0 0.577359
4 2 1 -1.1794 0.0 0.0 3.5
5 2 2 0.5897 0.8164904 0.0 4.0773589999999995
6 2 2 0.5897 -0.8164904 0.0 4.0773589999999995
7 3 1 -1.1794 0.0 0.0 7.0
8 3 2 0.5897 0.8164904 0.0 7.5773589999999995
9 3 2 0.5897 -0.8164904 0.0 7.5773589999999995
10 4 1 -1.1794 0.0 0.0 10.5
11 4 2 0.5897 0.8164904 0.0 11.077359
12 4 2 0.5897 -0.8164904 0.0 11.077359
13 5 1 -1.1794 0.0 0.0 14.0
14 5 2 0.5897 0.8164904 0.0 14.577359
15 5 2 0.5897 -0.8164904 0.0 14.577359
16 6 1 -1.1794 0.0 0.0 17.5
17 6 2 0.5897 0.8164904 0.0 18.077359
18 6 2 0.5897 -0.8164904 0.0 18.077359
19 7 1 -1.1794 0.0 0.0 21.0
20 7 2 0.5897 0.8164904 0.0 21.577359
21 7 2 0.5897 -0.8164904 0.0 21.577359
22 8 1 -1.1794 0.0 0.0 24.5
23 8 2 0.5897 0.8164904 0.0 25.077359
24 8 2 0.5897 -0.8164904 0.0 25.077359
25 9 1 -1.1794 0.0 3.5 0.0
26 9 2 0.5897 0.8164904 3.5 0.577359
27 9 2 0.5897 -0.8164904 3.5 0.577359
28 10 1 -1.1794 0.0 3.5 3.5
29 10 2 0.5897 0.8164904 3.5 4.0773589999999995
30 10 2 0.5897 -0.8164904 3.5 4.0773589999999995
31 11 1 -1.1794 0.0 3.5 7.0
32 11 2 0.5897 0.8164904 3.5 7.5773589999999995
33 11 2 0.5897 -0.8164904 3.5 7.5773589999999995
34 12 1 -1.1794 0.0 3.5 10.5
35 12 2 0.5897 0.8164904 3.5 11.077359
36 12 2 0.5897 -0.8164904 3.5 11.077359
37 13 1 -1.1794 0.0 3.5 14.0
38 13 2 0.5897 0.8164904 3.5 14.577359
39 13 2 0.5897 -0.8164904 3.5 14.577359
40 14 1 -1.1794 0.0 3.5 17.5
41 14 2 0.5897 0.8164904 3.5 18.077359
42 14 2 0.5897 -0.8164904 3.5 18.077359
43 15 1 -1.1794 0.0 3.5 21.0
44 15 2 0.5897 0.8164904 3.5 21.577359
45 15 2 0.5897 -0.8164904 3.5 21.577359
46 16 1 -1.1794 0.0 3.5 24.5
47 16 2 0.5897 0.8164904 3.5 25.077359
48 16 2 0.5897 -0.8164904 3.5 25.077359
49 17 1 -1.1794 0.0 7.0 0.0
50 17 2 0.5897 0.8164904 7.0 0.577359
51 17 2 0.5897 -0.8164904 7.0 0.577359
52 18 1 -1.1794 0.0 7.0 3.5
53 18 2 0.5897 0.8164904 7.0 4.0773589999999995
54 18 2 0.5897 -0.8164904 7.0 4.0773589999999995
55 19 1 -1.1794 0.0 7.0 7.0
56 19 2 0.5897 0.8164904 7.0 7.5773589999999995
57 19 2 0.5897 -0.8164904 7.0 7.5773589999999995
58 20 1 -1.1794 0.0 7.0 10.5
59 20 2 0.5897 0.8164904 7.0 11.077359
60 20 2 0.5897 -0.8164904 7.0 11.077359
61 21 1 -1.1794 0.0 7.0 14.0
62 21 2 0.5897 0.8164904 7.0 14.577359
63 21 2 0.5897 -0.8164904 7.0 14.577359
64 22 1 -1.1794 0.0 7.0 17.5
65 22 2 0.5897 0.8164904 7.0 18.077359
66 22 2 0.5897 -0.8164904 7.0 18.077359
67 23 1 -1.1794 0.0 7.0 21.0
68 23 2 0.5897 0.8164904 7.0 21.577359
69 23 2 0.5897 -0.8164904 7.0 21.577359
70 24 1 -1.1794 0.0 7.0 24.5
71 24 2 0.5897 0.8164904 7.0 25.077359
72 24 2 0.5897 -0.8164904 7.0 25.077359
73 25 1 -1.1794 0.0 10.5 0.0
74 25 2 0.5897 0.8164904 10.5 0.577359
75 25 2 0.5897 -0.8164904 10.5 0.577359
76 26 1 -1.1794 0.0 10.5 3.5
77 26 2 0.5897 0.8164904 10.5 4.0773589999999995
78 26 2 0.5897 -0.8164904 10.5 4.0773589999999995
79 27 1 -1.1794 0.0 10.5 7.0
80 27 2 0.5897 0.8164904 10.5 7.5773589999999995
81 27 2 0.5897 -0.8164904 10.5 7.5773589999999995
82 28 1 -1.1794 0.0 10.5 10.5
83 28 2 0.5897 0.8164904 10.5 11.077359
84 28 2 0.5897 -0.8164904 10.5 11.077359
85 29 1 -1.1794 0.0 10.5 14.0
86 29 2 0.5897 0.8164904 10.5 14.577359
87 29 2 0.5897 -0.8164904 10.5 14.577359
88 30 1 -1.1794 0.0 10.5 17.5
89 30 2 0.5897 0.8164904 10.5 18.077359
90 30 2 0.5897 -0.8164904 10.5 18.077359
91 31 1 -1.1794 0.0 10.5 21.0
92 31 2 0.5897 0.8164904 10.5 21.577359
93 31 2 0.5897 -0.8164904 10.5 21.577359
94 32 1 -1.1794 0.0 10.5 24.5
95 32 2 0.5897 0.8164904 10.5 25.077359
96 32 2 0.5897 -0.8164904 10.5 25.077359
97 33 1 -1.1794 0.0 14.0 0.0
98 33 2 0.5897 0.8164904 14.0 0.577359
99 33 2 0.5897 -0.8164904 14.0 0.577359
100 34 1 -1.1794 0.0 14.0 3.5
101 34 2 0.5897 0.8164904 14.0 4.0773589999999995
102 34 2 0.5897 -0.8164904 14.0 4.0773589999999995
103 35 1 -1.1794 0.0 14.0 7.0
104 35 2 0.5897 0.8164904 14.0 7.5773589999999995
105 35 2 0.5897 -0.8164904 14.0 7.5773589999999995
106 36 1 -1.1794 0.0 14.0 10.5
107 36 2 0.5897 0.8164904 14.0 11.077359
108 36 2 0.5897 -0.8164904 14.0 11.077359
109 37 1 -1.1794 0.0 14.0 14.0
110 37 2 0.5897 0.8164904 14.0 14.577359
111 37 2 0.5897 -0.8164904 14.0 14.577359
112 38 1 -1.1794 0.0 14.0 17.5
113 38 2 0.5897 0.8164904 14.0 18.077359
114 38 2 0.5897 -0.8164904 14.0 18.077359
115 39 1 -1.1794 0.0 14.0 21.0
116 39 2 0.5897 0.8164904 14.0 21.577359
117 39 2 0.5897 -0.8164904 14.0 21.577359
118 40 1 -1.1794 0.0 14.0 24.5
119 40 2 0.5897 0.8164904 14.0 25.077359
120 40 2 0.5897 -0.8164904 14.0 25.077359
121 41 1 -1.1794 0.0 17.5 0.0
122 41 2 0.5897 0.8164904 17.5 0.577359
123 41 2 0.5897 -0.8164904 17.5 0.577359
124 42 1 -1.1794 0.0 17.5 3.5
125 42 2 0.5897 0.8164904 17.5 4.0773589999999995
126 42 2 0.5897 -0.8164904 17.5 4.0773589999999995
127 43 1 -1.1794 0.0 17.5 7.0
128 43 2 0.5897 0.8164904 17.5 7.5773589999999995
129 43 2 0.5897 -0.8164904 17.5 7.5773589999999995
130 44 1 -1.1794 0.0 17.5 10.5
131 44 2 0.5897 0.8164904 17.5 11.077359
132 44 2 0.5897 -0.8164904 17.5 11.077359
133 45 1 -1.1794 0.0 17.5 14.0
134 45 2 0.5897 0.8164904 17.5 14.577359
135 45 2 0.5897 -0.8164904 17.5 14.577359
136 46 1 -1.1794 0.0 17.5 17.5
137 46 2 0.5897 0.8164904 17.5 18.077359
138 46 2 0.5897 -0.8164904 17.5 18.077359
139 47 1 -1.1794 0.0 17.5 21.0
140 47 2 0.5897 0.8164904 17.5 21.577359
141 47 2 0.5897 -0.8164904 17.5 21.577359
142 48 1 -1.1794 0.0 17.5 24.5
143 48 2 0.5897 0.8164904 17.5 25.077359
144 48 2 0.5897 -0.8164904 17.5 25.077359
145 49 1 -1.1794 0.0 21.0 0.0
146 49 2 0.5897 0.8164904 21.0 0.577359
147 49 2 0.5897 -0.8164904 21.0 0.577359
148 50 1 -1.1794 0.0 21.0 3.5
149 50 2 0.5897 0.8164904 21.0 4.0773589999999995
150 50 2 0.5897 -0.8164904 21.0 4.0773589999999995
151 51 1 -1.1794 0.0 21.0 7.0
152 51 2 0.5897 0.8164904 21.0 7.5773589999999995
153 51 2 0.5897 -0.8164904 21.0 7.5773589999999995
154 52 1 -1.1794 0.0 21.0 10.5
155 52 2 0.5897 0.8164904 21.0 11.077359
156 52 2 0.5897 -0.8164904 21.0 11.077359
157 53 1 -1.1794 0.0 21.0 14.0
158 53 2 0.5897 0.8164904 21.0 14.577359
159 53 2 0.5897 -0.8164904 21.0 14.577359
160 54 1 -1.1794 0.0 21.0 17.5
161 54 2 0.5897 0.8164904 21.0 18.077359
162 54 2 0.5897 -0.8164904 21.0 18.077359
163 55 1 -1.1794 0.0 21.0 21.0
164 55 2 0.5897 0.8164904 21.0 21.577359
165 55 2 0.5897 -0.8164904 21.0 21.577359
166 56 1 -1.1794 0.0 21.0 24.5
167 56 2 0.5897 0.8164904 21.0 25.077359
168 56 2 0.5897 -0.8164904 21.0 25.077359
169 57 1 -1.1794 0.0 24.5 0.0
170 57 2 0.5897 0.8164904 24.5 0.577359
171 57 2 0.5897 -0.8164904 24.5 0.577359
172 58 1 -1.1794 0.0 24.5 3.5
173 58 2 0.5897 0.8164904 24.5 4.0773589999999995
174 58 2 0.5897 -0.8164904 24.5 4.0773589999999995
175 59 1 -1.1794 0.0 24.5 7.0
176 59 2 0.5897 0.8164904 24.5 7.5773589999999995
177 59 2 0.5897 -0.8164904 24.5 7.5773589999999995
178 60 1 -1.1794 0.0 24.5 10.5
179 60 2 0.5897 0.8164904 24.5 11.077359
180 60 2 0.5897 -0.8164904 24.5 11.077359
181 61 1 -1.1794 0.0 24.5 14.0
182 61 2 0.5897 0.8164904 24.5 14.577359
183 61 2 0.5897 -0.8164904 24.5 14.577359
184 62 1 -1.1794 0.0 24.5 17.5
185 62 2 0.5897 0.8164904 24.5 18.077359
186 62 2 0.5897 -0.8164904 24.5 18.077359
187 63 1 -1.1794 0.0 24.5 21.0
188 63 2 0.5897 0.8164904 24.5 21.577359
189 63 2 0.5897 -0.8164904 24.5 21.577359
190 64 1 -1.1794 0.0 24.5 24.5
191 64 2 0.5897 0.8164904 24.5 25.077359
192 64 2 0.5897 -0.8164904 24.5 25.077359
193 65 1 -1.1794 3.5 0.0 0.0
194 65 2 0.5897 4.3164904 0.0 0.577359
195 65 2 0.5897 2.6835096 0.0 0.577359
196 66 1 -1.1794 3.5 0.0 3.5
197 66 2 0.5897 4.3164904 0.0 4.0773589999999995
198 66 2 0.5897 2.6835096 0.0 4.0773589999999995
199 67 1 -1.1794 3.5 0.0 7.0
200 67 2 0.5897 4.3164904 0.0 7.5773589999999995
201 67 2 0.5897 2.6835096 0.0 7.5773589999999995
202 68 1 -1.1794 3.5 0.0 10.5
203 68 2 0.5897 4.3164904 0.0 11.077359
204 68 2 0.5897 2.6835096 0.0 11.077359
205 69 1 -1.1794 3.5 0.0 14.0
206 69 2 0.5897 4.3164904 0.0 14.577359
207 69 2 0.5897 2.6835096 0.0 14.577359
208 70 1 -1.1794 3.5 0.0 17.5
209 70 2 0.5897 4.3164904 0.0 18.077359
210 70 2 0.5897 2.6835096 0.0 18.077359
211 71 1 -1.1794 3.5 0.0 21.0
212 71 2 0.5897 4.3164904 0.0 21.577359
213 71 2 0.5897 2.6835096 0.0 21.577359
214 72 1 -1.1794 3.5 0.0 24.5
215 72 2 0.5897 4.3164904 0.0 25.077359
216 72 2 0.5897 2.6835096 0.0 25.077359
217 73 1 -1.1794 3.5 3.5 0.0
218 73 2 0.5897 4.3164904 3.5 0.577359
219 73 2 0.5897 2.6835096 3.5 0.577359
220 74 1 -1.1794 3.5 3.5 3.5
221 74 2 0.5897 4.3164904 3.5 4.0773589999999995
222 74 2 0.5897 2.6835096 3.5 4.0773589999999995
223 75 1 -1.1794 3.5 3.5 7.0
224 75 2 0.5897 4.3164904 3.5 7.5773589999999995
225 75 2 0.5897 2.6835096 3.5 7.5773589999999995
226 76 1 -1.1794 3.5 3.5 10.5
227 76 2 0.5897 4.3164904 3.5 11.077359
228 76 2 0.5897 2.6835096 3.5 11.077359
229 77 1 -1.1794 3.5 3.5 14.0
230 77 2 0.5897 4.3164904 3.5 14.577359
231 77 2 0.5897 2.6835096 3.5 14.577359
232 78 1 -1.1794 3.5 3.5 17.5
233 78 2 0.5897 4.3164904 3.5 18.077359
234 78 2 0.5897 2.6835096 3.5 18.077359
235 79 1 -1.1794 3.5 3.5 21.0
236 79 2 0.5897 4.3164904 3.5 21.577359
237 79 2 0.5897 2.6835096 3.5 21.577359
238 80 1 -1.1794 3.5 3.5 24.5
239 80 2 0.5897 4.3164904 3.5 25.077359
240 80 2 0.5897 2.6835096 3.5 25.077359
241 81 1 -1.1794 3.5 7.0 0.0
242 81 2 0.5897 4.3164904 7.0 0.577359
243 81 2 0.5897 2.6835096 7.0 0.577359
244 82 1 -1.1794 3.5 7.0 3.5
245 82 2 0.5897 4.3164904 7.0 4.0773589999999995
246 82 2 0.5897 2.6835096 7.0 4.0773589999999995
247 83 1 -1.1794 3.5 7.0 7.0
248 83 2 0.5897 4.3164904 7.0 7.5773589999999995
249 83 2 0.5897 2.6835096 7.0 7.5773589999999995
250 84 1 -1.1794 3.5 7.0 10.5
251 84 2 0.5897 4.3164904 7.0 11.077359
252 84 2 0.5897 2.6835096 7.0 11.077359
253 85 1 -1.1794 3.5 7.0 14.0
254 85 2 0.5897 4.3164904 7.0 14.577359
255 85 2 0.5897 2.6835096 7.0 14.577359
256 86 1 -1.1794 3.5 7.0 17.5
257 86 2 0.5897 4.3164904 7.0 18.077359
258 86 2 0.5897 2.6835096 7.0 18.077359
259 87 1 -1.1794 3.5 7.0 21.0
260 87 2 0.5897 4.3164904 7.0 21.577359
261 87 2 0.5897 2.6835096 7.0 21.577359
262 88 1 -1.1794 3.5 7.0 24.5
263 88 2 0.5897 4.3164904 7.0 25.077359
264 88 2 0.5897 2.6835096 7.0 25.077359
265 89 1 -1.1794 3.5 10.5 0.0
266 89 2 0.5897 4.3164904 10.5 0.577359
267 89 2 0.5897 2.6835096 10.5 0.577359
268 90 1 -1.1794 3.5 10.5 3.5
269 90 2 0.5897 4.3164904 10.5 4.0773589999999995
270 90 2 0.5897 2.6835096 10.5 4.0773589999999995
271 91 1 -1.1794 3.5 10.5 7.0
272 91 2 0.5897 4.3164904 10.5 7.5773589999999995
273 91 2 0.5897 2.6835096 10.5 7.5773589999999995
274 92 1 -1.1794 3.5 10.5 10.5
275 92 2 0.5897 4.3164904 10.5 11.077359
276 92 2 0.5897 2.6835096 10.5 11.077359
277 93 1 -1.1794 3.5 10.5 14.0
278 93 2 0.5897 4.3164904 10.5 14.577359
279 93 2 0.5897 2.6835096 10.5 14.577359
280 94 1 -1.1794 3.5 10.5 17.5
281 94 2 0.5897 4.3164904 10.5 18.077359
282 94 2 0.5897 2.6835096 10.5 18.077359
283 95 1 -1.1794 3.5 10.5 21.0
284 95 2 0.5897 4.3164904 10.5 21.577359
285 95 2 0.5897 2.6835096 10.5 21.577359
286 96 1 -1.1794 3.5 10.5 24.5
287 96 2 0.5897 4.3164904 10.5 25.077359
288 96 2 0.5897 2.6835096 10.5 25.077359
289 97 1 -1.1794 3.5 14.0 0.0
290 97 2 0.5897 4.3164904 14.0 0.577359
291 97 2 0.5897 2.6835096 14.0 0.577359
292 98 1 -1.1794 3.5 14.0 3.5
293 98 2 0.5897 4.3164904 14.0 4.0773589999999995
294 98 2 0.5897 2.6835096 14.0 4.0773589999999995
295 99 1 -1.1794 3.5 14.0 7.0
296 99 2 0.5897 4.3164904 14.0 7.5773589999999995
297 99 2 0.5897 2.6835096 14.0 7.5773589999999995
298 100 1 -1.1794 3.5 14.0 10.5
299 100 2 0.5897 4.3164904 14.0 11.077359
300 100 2 0.5897 2.6835096 14.0 11.077359
301 101 1 -1.1794 3.5 14.0 14.0
302 101 2 0.5897 4.3164904 14.0 14.577359
303 101 2 0.5897 2.6835096 14.0 14.577359
304 102 1 -1.1794 3.5 14.0 17.5
305 102 2 0.5897 4.3164904 14.0 18.077359
306 102 2 0.5897 2.6835096 14.0 18.077359
307 103 1 -1.1794 3.5 14.0 21.0
308 103 2 0.5897 4.3164904 14.0 21.577359
309 103 2 0.5897 2.6835096 14.0 21.577359
310 104 1 -1.1794 3.5 14.0 24.5
311 104 2 0.5897 4.3164904 14.0 25.077359
312 104 2 0.5897 2.6835096 14.0 25.077359
313 105 1 -1.1794 3.5 17.5 0.0
314 105 2 0.5897 4.3164904 17.5 0.577359
315 105 2 0.5897 2.6835096 17.5 0.577359
316 106 1 -1.1794 3.5 17.5 3.5
317 106 2 0.5897 4.3164904 17.5 4.0773589999999995
318 106 2 0.5897 2.6835096 17.5 4.0773589999999995
319 107 1 -1.1794 3.5 17.5 7.0
320 107 2 0.5897 4.3164904 17.5 7.5773589999999995
321 107 2 0.5897 2.6835096 17.5 7.5773589999999995
322 108 1 -1.1794 3.5 17.5 10.5
323 108 2 0.5897 4.3164904 17.5 11.077359
324 108 2 0.5897 2.6835096 17.5 11.077359
325 109 1 -1.1794 3.5 17.5 14.0
326 109 2 0.5897 4.3164904 17.5 14.577359
327 109 2 0.5897 2.6835096 17.5 14.577359
328 110 1 -1.1794 3.5 17.5 17.5
329 110 2 0.5897 4.3164904 17.5 18.077359
330 110 2 0.5897 2.6835096 17.5 18.077359
331 111 1 -1.1794 3.5 17.5 21.0
332 111 2 0.5897 4.3164904 17.5 21.577359
333 111 2 0.5897 2.6835096 17.5 21.577359
334 112 1 -1.1794 3.5 17.5 24.5
335 112 2 0.5897 4.3164904 17.5 25.077359
336 112 2 0.5897 2.6835096 17.5 25.077359
337 113 1 -1.1794 3.5 21.0 0.0
338 113 2 0.5897 4.3164904 21.0 0.577359
339 113 2 0.5897 2.6835096 21.0 0.577359
340 114 1 -1.1794 3.5 21.0 3.5
341 114 2 0.5897 4.3164904 21.0 4.0773589999999995
342 114 2 0.5897 2.6835096 21.0 4.0773589999999995
343 115 1 -1.1794 3.5 21.0 7.0
344 115 2 0.5897 4.3164904 21.0 7.5773589999999995
345 115 2 0.5897 2.6835096 21.0 7.5773589999999995
346 116 1 -1.1794 3.5 21.0 10.5
347 116 2 0.5897 4.3164904 21.0 11.077359
348 116 2 0.5897 2.6835096 21.0 11.077359
349 117 1 -1.1794 3.5 21.0 14.0
350 117 2 0.5897 4.3164904 21.0 14.577359
351 117 2 0.5897 2.6835096 21.0 14.577359
352 118 1 -1.1794 3.5 21.0 17.5
353 118 2 0.5897 4.3164904 21.0 18.077359
354 118 2 0.5897 2.6835096 21.0 18.077359
355 119 1 -1.1794 3.5 21.0 21.0
356 119 2 0.5897 4.3164904 21.0 21.577359
357 119 2 0.5897 2.6835096 21.0 21.577359
358 120 1 -1.1794 3.5 21.0 24.5
359 120 2 0.5897 4.3164904 21.0 25.077359
360 120 2 0.5897 2.6835096 21.0 25.077359
361 121 1 -1.1794 3.5 24.5 0.0
362 121 2 0.5897 4.3164904 24.5 0.577359
363 121 2 0.5897 2.6835096 24.5 0.577359
364 122 1 -1.1794 3.5 24.5 3.5
365 122 2 0.5897 4.3164904 24.5 4.0773589999999995
366 122 2 0.5897 2.6835096 24.5 4.0773589999999995
367 123 1 -1.1794 3.5 24.5 7.0
368 123 2 0.5897 4.3164904 24.5 7.5773589999999995
369 123 2 0.5897 2.6835096 24.5 7.5773589999999995
370 124 1 -1.1794 3.5 24.5 10.5
371 124 2 0.5897 4.3164904 24.5 11.077359
372 124 2 0.5897 2.6835096 24.5 11.077359
373 125 1 -1.1794 3.5 24.5 14.0
374 125 2 0.5897 4.3164904 24.5 14.577359
375 125 2 0.5897 2.6835096 24.5 14.577359
376 126 1 -1.1794 3.5 24.5 17.5
377 126 2 0.5897 4.3164904 24.5 18.077359
378 126 2 0.5897 2.6835096 24.5 18.077359
379 127 1 -1.1794 3.5 24.5 21.0
380 127 2 0.5897 4.3164904 24.5 21.577359
381 127 2 0.5897 2.6835096 24.5 21.577359
382 128 1 -1.1794 3.5 24.5 24.5
383 128 2 0.5897 4.3164904 24.5 25.077359
384 128 2 0.5897 2.6835096 24.5 25.077359
385 129 1 -1.1794 7.0 0.0 0.0
386 129 2 0.5897 7.8164904 0.0 0.577359
387 129 2 0.5897 6.1835096 0.0 0.577359
388 130 1 -1.1794 7.0 0.0 3.5
389 130 2 0.5897 7.8164904 0.0 4.0773589999999995
390 130 2 0.5897 6.1835096 0.0 4.0773589999999995
391 131 1 -1.1794 7.0 0.0 7.0
392 131 2 0.5897 7.8164904 0.0 7.5773589999999995
393 131 2 0.5897 6.1835096 0.0 7.5773589999999995
394 132 1 -1.1794 7.0 0.0 10.5
395 132 2 0.5897 7.8164904 0.0 11.077359
396 132 2 0.5897 6.1835096 0.0 11.077359
397 133 1 -1.1794 7.0 0.0 14.0
398 133 2 0.5897 7.8164904 0.0 14.577359
399 133 2 0.5897 6.1835096 0.0 14.577359
400 134 1 -1.1794 7.0 0.0 17.5
401 134 2 0.5897 7.8164904 0.0 18.077359
402 134 2 0.5897 6.1835096 0.0 18.077359
403 135 1 -1.1794 7.0 0.0 21.0
404 135 2 0.5897 7.8164904 0.0 21.577359
405 135 2 0.5897 6.1835096 0.0 21.577359
406 136 1 -1.1794 7.0 0.0 24.5
407 136 2 0.5897 7.8164904 0.0 25.077359
408 136 2 0.5897 6.1835096 0.0 25.077359
409 137 1 -1.1794 7.0 3.5 0.0
410 137 2 0.5897 7.8164904 3.5 0.577359
411 137 2 0.5897 6.1835096 3.5 0.577359
412 138 1 -1.1794 7.0 3.5 3.5
413 138 2 0.5897 7.8164904 3.5 4.0773589999999995
414 138 2 0.5897 6.1835096 3.5 4.0773589999999995
415 139 1 -1.1794 7.0 3.5 7.0
416 139 2 0.5897 7.8164904 3.5 7.5773589999999995
417 139 2 0.5897 6.1835096 3.5 7.5773589999999995
418 140 1 -1.1794 7.0 3.5 10.5
419 140 2 0.5897 7.8164904 3.5 11.077359
420 140 2 0.5897 6.1835096 3.5 11.077359
421 141 1 -1.1794 7.0 3.5 14.0
422 141 2 0.5897 7.8164904 3.5 14.577359
423 141 2 0.5897 6.1835096 3.5 14.577359
424 142 1 -1.1794 7.0 3.5 17.5
425 142 2 0.5897 7.8164904 3.5 18.077359
426 142 2 0.5897 6.1835096 3.5 18.077359
427 143 1 -1.1794 7.0 3.5 21.0
428 143 2 0.5897 7.8164904 3.5 21.577359
429 143 2 0.5897 6.1835096 3.5 21.577359
430 144 1 -1.1794 7.0 3.5 24.5
431 144 2 0.5897 7.8164904 3.5 25.077359
432 144 2 0.5897 6.1835096 3.5 25.077359
433 145 1 -1.1794 7.0 7.0 0.0
434 145 2 0.5897 7.8164904 7.0 0.577359
435 145 2 0.5897 6.1835096 7.0 0.577359
436 146 1 -1.1794 7.0 7.0 3.5
437 146 2 0.5897 7.8164904 7.0 4.0773589999999995
438 146 2 0.5897 6.1835096 7.0 4.0773589999999995
439 147 1 -1.1794 7.0 7.0 7.0
440 147 2 0.5897 7.8164904 7.0 7.5773589999999995
441 147 2 0.5897 6.1835096 7.0 7.5773589999999995
442 148 1 -1.1794 7.0 7.0 10.5
443 148 2 0.5897 7.8164904 7.0 11.077359
444 148 2 0.5897 6.1835096 7.0 11.077359
445 149 1 -1.1794 7.0 7.0 14.0
446 149 2 0.5897 7.8164904 7.0 14.577359
447 149 2 0.5897 6.1835096 7.0 14.577359
448 150 1 -1.1794 7.0 7.0 17.5
449 150 2 0.5897 7.8164904 7.0 18.077359
450 150 2 0.5897 6.1835096 7.0 18.077359
451 151 1 -1.1794 7.0 7.0 21.0
452 151 2 0.5897 7.8164904 7.0 21.577359
453 151 2 0.5897 6.1835096 7.0 21.577359
454 152 1 -1.1794 7.0 7.0 24.5
455 152 2 0.5897 7.8164904 7.0 25.077359
456 152 2 0.5897 6.1835096 7.0 25.077359
457 153 1 -1.1794 7.0 10.5 0.0
458 153 2 0.5897 7.8164904 10.5 0.577359
459 153 2 0.5897 6.1835096 10.5 0.577359
460 154 1 -1.1794 7.0 10.5 3.5
461 154 2 0.5897 7.8164904 10.5 4.0773589999999995
462 154 2 0.5897 6.1835096 10.5 4.0773589999999995
463 155 1 -1.1794 7.0 10.5 7.0
464 155 2 0.5897 7.8164904 10.5 7.5773589999999995
465 155 2 0.5897 6.1835096 10.5 7.5773589999999995
466 156 1 -1.1794 7.0 10.5 10.5
467 156 2 0.5897 7.8164904 10.5 11.077359
468 156 2 0.5897 6.1835096 10.5 11.077359
469 157 1 -1.1794 7.0 10.5 14.0
470 157 2 0.5897 7.8164904 10.5 14.577359
471 157 2 0.5897 6.1835096 10.5 14.577359
472 158 1 -1.1794 7.0 10.5 17.5
473 158 2 0.5897 7.8164904 10.5 18.077359
474 158 2 0.5897 6.1835096 10.5 18.077359
475 159 1 -1.1794 7.0 10.5 21.0
476 159 2 0.5897 7.8164904 10.5 21.577359
477 159 2 0.5897 6.1835096 10.5 21.577359
478 160 1 -1.1794 7.0 10.5 24.5
479 160 2 0.5897 7.8164904 10.5 25.077359
480 160 2 0.5897 6.1835096 10.5 25.077359
481 161 1 -1.1794 7.0 14.0 0.0
482 161 2 0.5897 7.8164904 14.0 0.577359
483 161 2 0.5897 6.1835096 14.0 0.577359
484 162 1 -1.1794 7.0 14.0 3.5
485 162 2 0.5897 7.8164904 14.0 4.0773589999999995
486 162 2 0.5897 6.1835096 14.0 4.0773589999999995
487 163 1 -1.1794 7.0 14.0 7.0
488 163 2 0.5897 7.8164904 14.0 7.5773589999999995
489 163 2 0.5897 6.1835096 14.0 7.5773589999999995
490 164 1 -1.1794 7.0 14.0 10.5
491 164 2 0.5897 7.8164904 14.0 11.077359
492 164 2 0.5897 6.1835096 14.0 11.077359
493 165 1 -1.1794 7.0 14.0 14.0
494 165 2 0.5897 7.8164904 14.0 14.577359
495 165 2 0.5897 6.1835096 14.0 14.577359
496 166 1 -1.1794 7.0 14.0 17.5
497 166 2 0.5897 7.8164904 14.0 18.077359
498 166 2 0.5897 6.1835096 14.0 18.077359
499 167 1 -1.1794 7.0 14.0 21.0
500 167 2 0.5897 7.8164904 14.0 21.577359
501 167 2 0.5897 6.1835096 14.0 21.577359
502 168 1 -1.1794 7.0 14.0 24.5
503 168 2 0.5897 7.8164904 14.0 25.077359
504 168 2 0.5897 6.1835096 14.0 25.077359
505 169 1 -1.1794 7.0 17.5 0.0
506 169 2 0.5897 7.8164904 17.5 0.577359
507 169 2 0.5897 6.1835096 17.5 0.577359
508 170 1 -1.1794 7.0 17.5 3.5
509 170 2 0.5897 7.8164904 17.5 4.0773589999999995
510 170 2 0.5897 6.1835096 17.5 4.0773589999999995
511 171 1 -1.1794 7.0 17.5 7.0
512 171 2 0.5897 7.8164904 17.5 7.5773589999999995
513 171 2 0.5897 6.1835096 17.5 7.5773589999999995
514 172 1 -1.1794 7.0 17.5 10.5
515 172 2 0.5897 7.8164904 17.5 11.077359
516 172 2 0.5897 6.1835096 17.5 11.077359
517 173 1 -1.1794 7.0 17.5 14.0
518 173 2 0.5897 7.8164904 17.5 14.577359
519 173 2 0.5897 6.1835096 17.5 14.577359
520 174 1 -1.1794 7.0 17.5 17.5
521 174 2 0.5897 7.8164904 17.5 18.077359
522 174 2 0.5897 6.1835096 17.5 18.077359
523 175 1 -1.1794 7.0 17.5 21.0
524 175 2 0.5897 7.8164904 17.5 21.577359
525 175 2 0.5897 6.1835096 17.5 21.577359
526 176 1 -1.1794 7.0 17.5 24.5
527 176 2 0.5897 7.8164904 17.5 25.077359
528 176 2 0.5897 6.1835096 17.5 25.077359
529 177 1 -1.1794 7.0 21.0 0.0
530 177 2 0.5897 7.8164904 21.0 0.577359
531 177 2 0.5897 6.1835096 21.0 0.577359
532 178 1 -1.1794 7.0 21.0 3.5
533 178 2 0.5897 7.8164904 21.0 4.0773589999999995
534 178 2 0.5897 6.1835096 21.0 4.0773589999999995
535 179 1 -1.1794 7.0 21.0 7.0
536 179 2 0.5897 7.8164904 21.0 7.5773589999999995
537 179 2 0.5897 6.1835096 21.0 7.5773589999999995
538 180 1 -1.1794 7.0 21.0 10.5
539 180 2 0.5897 7.8164904 21.0 11.077359
540 180 2 0.5897 6.1835096 21.0 11.077359
541 181 1 -1.1794 7.0 21.0 14.0
542 181 2 0.5897 7.8164904 21.0 14.577359
543 181 2 0.5897 6.1835096 21.0 14.577359
544 182 1 -1.1794 7.0 21.0 17.5
545 182 2 0.5897 7.8164904 21.0 18.077359
546 182 2 0.5897 6.1835096 21.0 18.077359
547 183 1 -1.1794 7.0 21.0 21.0
548 183 2 0.5897 7.8164904 21.0 21.577359
549 183 2 0.5897 6.1835096 21.0 21.577359
550 184 1 -1.1794 7.0 21.0 24.5
551 184 2 0.5897 7.8164904 21.0 25.077359
552 184 2 0.5897 6.1835096 21.0 25.077359
553 185 1 -1.1794 7.0 24.5 0.0
554 185 2 0.5897 7.8164904 24.5 0.577359
555 185 2 0.5897 6.1835096 24.5 0.577359
556 186 1 -1.1794 7.0 24.5 3.5
557 186 2 0.5897 7.8164904 24.5 4.0773589999999995
558 186 2 0.5897 6.1835096 24.5 4.0773589999999995
559 187 1 -1.1794 7.0 24.5 7.0
560 187 2 0.5897 7.8164904 24.5 7.5773589999999995
561 187 2 0.5897 6.1835096 24.5 7.5773589999999995
562 188 1 -1.1794 7.0 24.5 10.5
563 188 2 0.5897 7.8164904 24.5 11.077359
564 188 2 0.5897 6.1835096 24.5 11.077359
565 189 1 -1.1794 7.0 24.5 14.0
566 189 2 0.5897 7.8164904 24.5 14.577359
567 189 2 0.5897 6.1835096 24.5 14.577359
568 190 1 -1.1794 7.0 24.5 17.5
569 190 2 0.5897 7.8164904 24.5 18.077359
570 190 2 0.5897 6.1835096 24.5 18.077359
571 191 1 -1.1794 7.0 24.5 21.0
572 191 2 0.5897 7.8164904 24.5 21.577359
573 191 2 0.5897 6.1835096 24.5 21.577359
574 192 1 -1.1794 7.0 24.5 24.5
575 192 2 0.5897 7.8164904 24.5 25.077359
576 192 2 0.5897 6.1835096 24.5 25.077359
577 193 1 -1.1794 10.5 0.0 0.0
578 193 2 0.5897 11.3164904 0.0 0.577359
579 193 2 0.5897 9.6835096 0.0 0.577359
580 194 1 -1.1794 10.5 0.0 3.5
581 194 2 0.5897 11.3164904 0.0 4.0773589999999995
582 194 2 0.5897 9.6835096 0.0 4.0773589999999995
583 195 1 -1.1794 10.5 0.0 7.0
584 195 2 0.5897 11.3164904 0.0 7.5773589999999995
585 195 2 0.5897 9.6835096 0.0 7.5773589999999995
586 196 1 -1.1794 10.5 0.0 10.5
587 196 2 0.5897 11.3164904 0.0 11.077359
588 196 2 0.5897 9.6835096 0.0 11.077359
589 197 1 -1.1794 10.5 0.0 14.0
590 197 2 0.5897 11.3164904 0.0 14.577359
591 197 2 0.5897 9.6835096 0.0 14.577359
592 198 1 -1.1794 10.5 0.0 17.5
593 198 2 0.5897 11.3164904 0.0 18.077359
594 198 2 0.5897 9.6835096 0.0 18.077359
595 199 1 -1.1794 10.5 0.0 21.0
596 199 2 0.5897 11.3164904 0.0 21.577359
597 199 2 0.5897 9.6835096 0.0 21.577359
598 200 1 -1.1794 10.5 0.0 24.5
599 200 2 0.5897 11.3164904 0.0 25.077359
600 200 2 0.5897 9.6835096 0.0 25.077359
601 201 1 -1.1794 10.5 3.5 0.0
602 201 2 0.5897 11.3164904 3.5 0.577359
603 201 2 0.5897 9.6835096 3.5 0.577359
604 202 1 -1.1794 10.5 3.5 3.5
605 202 2 0.5897 11.3164904 3.5 4.0773589999999995
606 202 2 0.5897 9.6835096 3.5 4.0773589999999995
607 203 1 -1.1794 10.5 3.5 7.0
608 203 2 0.5897 11.3164904 3.5 7.5773589999999995
609 203 2 0.5897 9.6835096 3.5 7.5773589999999995
610 204 1 -1.1794 10.5 3.5 10.5
611 204 2 0.5897 11.3164904 3.5 11.077359
612 204 2 0.5897 9.6835096 3.5 11.077359
613 205 1 -1.1794 10.5 3.5 14.0
614 205 2 0.5897 11.3164904 3.5 14.577359
615 205 2 0.5897 9.6835096 3.5 14.577359
616 206 1 -1.1794 10.5 3.5 17.5
617 206 2 0.5897 11.3164904 3.5 18.077359
618 206 2 0.5897 9.6835096 3.5 18.077359
619 207 1 -1.1794 10.5 3.5 21.0
620 207 2 0.5897 11.3164904 3.5 21.577359
621 207 2 0.5897 9.6835096 3.5 21.577359
622 208 1 -1.1794 10.5 3.5 24.5
623 208 2 0.5897 11.3164904 3.5 25.077359
624 208 2 0.5897 9.6835096 3.5 25.077359
625 209 1 -1.1794 10.5 7.0 0.0
626 209 2 0.5897 11.3164904 7.0 0.577359
627 209 2 0.5897 9.6835096 7.0 0.577359
628 210 1 -1.1794 10.5 7.0 3.5
629 210 2 0.5897 11.3164904 7.0 4.0773589999999995
630 210 2 0.5897 9.6835096 7.0 4.0773589999999995
631 211 1 -1.1794 10.5 7.0 7.0
632 211 2 0.5897 11.3164904 7.0 7.5773589999999995
633 211 2 0.5897 9.6835096 7.0 7.5773589999999995
634 212 1 -1.1794 10.5 7.0 10.5
635 212 2 0.5897 11.3164904 7.0 11.077359
636 212 2 0.5897 9.6835096 7.0 11.077359
637 213 1 -1.1794 10.5 7.0 14.0
638 213 2 0.5897 11.3164904 7.0 14.577359
639 213 2 0.5897 9.6835096 7.0 14.577359
640 214 1 -1.1794 10.5 7.0 17.5
641 214 2 0.5897 11.3164904 7.0 18.077359
642 214 2 0.5897 9.6835096 7.0 18.077359
643 215 1 -1.1794 10.5 7.0 21.0
644 215 2 0.5897 11.3164904 7.0 21.577359
645 215 2 0.5897 9.6835096 7.0 21.577359
646 216 1 -1.1794 10.5 7.0 24.5
647 216 2 0.5897 11.3164904 7.0 25.077359
648 216 2 0.5897 9.6835096 7.0 25.077359
649 217 1 -1.1794 10.5 10.5 0.0
650 217 2 0.5897 11.3164904 10.5 0.577359
651 217 2 0.5897 9.6835096 10.5 0.577359
652 218 1 -1.1794 10.5 10.5 3.5
653 218 2 0.5897 11.3164904 10.5 4.0773589999999995
654 218 2 0.5897 9.6835096 10.5 4.0773589999999995
655 219 1 -1.1794 10.5 10.5 7.0
656 219 2 0.5897 11.3164904 10.5 7.5773589999999995
657 219 2 0.5897 9.6835096 10.5 7.5773589999999995
658 220 1 -1.1794 10.5 10.5 10.5
659 220 2 0.5897 11.3164904 10.5 11.077359
660 220 2 0.5897 9.6835096 10.5 11.077359
661 221 1 -1.1794 10.5 10.5 14.0
662 221 2 0.5897 11.3164904 10.5 14.577359
663 221 2 0.5897 9.6835096 10.5 14.577359
664 222 1 -1.1794 10.5 10.5 17.5
665 222 2 0.5897 11.3164904 10.5 18.077359
666 222 2 0.5897 9.6835096 10.5 18.077359
667 223 1 -1.1794 10.5 10.5 21.0
668 223 2 0.5897 11.3164904 10.5 21.577359
669 223 2 0.5897 9.6835096 10.5 21.577359
670 224 1 -1.1794 10.5 10.5 24.5
671 224 2 0.5897 11.3164904 10.5 25.077359
672 224 2 0.5897 9.6835096 10.5 25.077359
673 225 1 -1.1794 10.5 14.0 0.0
674 225 2 0.5897 11.3164904 14.0 0.577359
675 225 2 0.5897 9.6835096 14.0 0.577359
676 226 1 -1.1794 10.5 14.0 3.5
677 226 2 0.5897 11.3164904 14.0 4.0773589999999995
678 226 2 0.5897 9.6835096 14.0 4.0773589999999995
679 227 1 -1.1794 10.5 14.0 7.0
680 227 2 0.5897 11.3164904 14.0 7.5773589999999995
681 227 2 0.5897 9.6835096 14.0 7.5773589999999995
682 228 1 -1.1794 10.5 14.0 10.5
683 228 2 0.5897 11.3164904 14.0 11.077359
684 228 2 0.5897 9.6835096 14.0 11.077359
685 229 1 -1.1794 10.5 14.0 14.0
686 229 2 0.5897 11.3164904 14.0 14.577359
687 229 2 0.5897 9.6835096 14.0 14.577359
688 230 1 -1.1794 10.5 14.0 17.5
689 230 2 0.5897 11.3164904 14.0 18.077359
690 230 2 0.5897 9.6835096 14.0 18.077359
691 231 1 -1.1794 10.5 14.0 21.0
692 231 2 0.5897 11.3164904 14.0 21.577359
693 231 2 0.5897 9.6835096 14.0 21.577359
694 232 1 -1.1794 10.5 14.0 24.5
695 232 2 0.5897 11.3164904 14.0 25.077359
696 232 2 0.5897 9.6835096 14.0 25.077359
697 233 1 -1.1794 10.5 17.5 0.0
698 233 2 0.5897 11.3164904 17.5 0.577359
699 233 2 0.5897 9.6835096 17.5 0.577359
700 234 1 -1.1794 10.5 17.5 3.5
701 234 2 0.5897 11.3164904 17.5 4.0773589999999995
702 234 2 0.5897 9.6835096 17.5 4.0773589999999995
703 235 1 -1.1794 10.5 17.5 7.0
704 235 2 0.5897 11.3164904 17.5 7.5773589999999995
705 235 2 0.5897 9.6835096 17.5 7.5773589999999995
706 236 1 -1.1794 10.5 17.5 10.5
707 236 2 0.5897 11.3164904 17.5 11.077359
708 236 2 0.5897 9.6835096 17.5 11.077359
709 237 1 -1.1794 10.5 17.5 14.0
710 237 2 0.5897 11.3164904 17.5 14.577359
711 237 2 0.5897 9.6835096 17.5 14.577359
712 238 1 -1.1794 10.5 17.5 17.5
713 238 2 0.5897 11.3164904 17.5 18.077359
714 238 2 0.5897 9.6835096 17.5 18.077359
715 239 1 -1.1794 10.5 17.5 21.0
716 239 2 0.5897 11.3164904 17.5 21.577359
717 239 2 0.5897 9.6835096 17.5 21.577359
718 240 1 -1.1794 10.5 17.5 24.5
719 240 2 0.5897 11.3164904 17.5 25.077359
720 240 2 0.5897 9.6835096 17.5 25.077359
721 241 1 -1.1794 10.5 21.0 0.0
722 241 2 0.5897 11.3164904 21.0 0.577359
723 241 2 0.5897 9.6835096 21.0 0.577359
724 242 1 -1.1794 10.5 21.0 3.5
725 242 2 0.5897 11.3164904 21.0 4.0773589999999995
726 242 2 0.5897 9.6835096 21.0 4.0773589999999995
727 243 1 -1.1794 10.5 21.0 7.0
728 243 2 0.5897 11.3164904 21.0 7.5773589999999995
729 243 2 0.5897 9.6835096 21.0 7.5773589999999995
730 244 1 -1.1794 10.5 21.0 10.5
731 244 2 0.5897 11.3164904 21.0 11.077359
732 244 2 0.5897 9.6835096 21.0 11.077359
733 245 1 -1.1794 10.5 21.0 14.0
734 245 2 0.5897 11.3164904 21.0 14.577359
735 245 2 0.5897 9.6835096 21.0 14.577359
736 246 1 -1.1794 10.5 21.0 17.5
737 246 2 0.5897 11.3164904 21.0 18.077359
738 246 2 0.5897 9.6835096 21.0 18.077359
739 247 1 -1.1794 10.5 21.0 21.0
740 247 2 0.5897 11.3164904 21.0 21.577359
741 247 2 0.5897 9.6835096 21.0 21.577359
742 248 1 -1.1794 10.5 21.0 24.5
743 248 2 0.5897 11.3164904 21.0 25.077359
744 248 2 0.5897 9.6835096 21.0 25.077359
745 249 1 -1.1794 10.5 24.5 0.0
746 249 2 0.5897 11.3164904 24.5 0.577359
747 249 2 0.5897 9.6835096 24.5 0.577359
748 250 1 -1.1794 10.5 24.5 3.5
749 250 2 0.5897 11.3164904 24.5 4.0773589999999995
750 250 2 0.5897 9.6835096 24.5 4.0773589999999995
751 251 1 -1.1794 10.5 24.5 7.0
752 251 2 0.5897 11.3164904 24.5 7.5773589999999995
753 251 2 0.5897 9.6835096 24.5 7.5773589999999995
754 252 1 -1.1794 10.5 24.5 10.5
755 252 2 0.5897 11.3164904 24.5 11.077359
756 252 2 0.5897 9.6835096 24.5 11.077359
757 253 1 -1.1794 10.5 24.5 14.0
758 253 2 0.5897 11.3164904 24.5 14.577359
759 253 2 0.5897 9.6835096 24.5 14.577359