 vasp.5.4.4.18Apr17-6-g9f103f2a35 (build Jul 09 2021 13:05:15) complex          
  
 executed on             LinuxIFC date 2021.11.04  19:02:04
 running on   16 total cores
 distrk:  each k-point on   16 cores,    1 groups
 distr:  one band on NCORES_PER_BAND=   4 cores,    4 groups


--------------------------------------------------------------------------------------------------------


 INCAR:
 POTCAR:    PAW_PBE H 15Jun2001                   
 POTCAR:    PAW_PBE C 08Apr2002                   
 POTCAR:    PAW_PBE H 15Jun2001                   
   VRHFIN =H: ultrasoft test                                                    
   LEXCH  = PE                                                                  
   EATOM  =    12.4884 eV,    0.9179 Ry                                         
                                                                                
   TITEL  = PAW_PBE H 15Jun2001                                                 
   LULTRA =        F    use ultrasoft PP ?                                      
   IUNSCR =        0    unscreen: 0-lin 1-nonlin 2-no                           
   RPACOR =    0.000    partial core radius                                     
   POMASS =    1.000; ZVAL   =    1.000    mass and valenz                      
   RCORE  =    1.100    outmost cutoff radius                                   
   RWIGS  =    0.700; RWIGS  =    0.370    wigner-seitz radius (au A)           
   ENMAX  =  250.000; ENMIN  =  200.000 eV                                      
   RCLOC  =    0.701    cutoff for local pot                                    
   LCOR   =        T    correct aug charges                                     
   LPAW   =        T    paw PP                                                  
   EAUG   =  400.000                                                            
   RMAX   =    1.123    core radius for proj-oper                               
   RAUG   =    1.200    factor for augmentation sphere                          
   RDEP   =    1.112    radius for radial grids                                 
   RDEPT  =    0.926    core radius for aug-charge                              
                                                                                
   Atomic configuration                                                         
    2 entries                                                                   
     n  l   j            E        occ.                                          
     1  0  0.50        -6.4927   1.0000                                         
     2  1  0.50        -3.4015   0.0000                                         
   Description                                                                  
     l       E           TYP  RCUT    TYP  RCUT                                 
     0     -6.4927494     23  1.100                                             
     0      6.8029130     23  1.100                                             
     1     -4.0817478     23  1.100                                             
  local pseudopotential read in
  atomic valenz-charges read in
  non local Contribution for L=           0  read in
    real space projection operators read in
  non local Contribution for L=           0  read in
    real space projection operators read in
  non local Contribution for L=           1  read in
    real space projection operators read in
    PAW grid and wavefunctions read in
 
   number of l-projection  operators is LMAX  =           3
   number of lm-projection operators is LMMAX =           5
 
 POTCAR:    PAW_PBE C 08Apr2002                   
   VRHFIN =C: s2p2                                                              
   LEXCH  = PE                                                                  
   EATOM  =   147.1560 eV,   10.8157 Ry                                         
                                                                                
   TITEL  = PAW_PBE C 08Apr2002                                                 
   LULTRA =        F    use ultrasoft PP ?                                      
   IUNSCR =        1    unscreen: 0-lin 1-nonlin 2-no                           
   RPACOR =    1.200    partial core radius                                     
   POMASS =   12.011; ZVAL   =    4.000    mass and valenz                      
   RCORE  =    1.500    outmost cutoff radius                                   
   RWIGS  =    1.630; RWIGS  =    0.863    wigner-seitz radius (au A)           
   ENMAX  =  400.000; ENMIN  =  300.000 eV                                      
   ICORE  =        2    local potential                                         
   LCOR   =        T    correct aug charges                                     
   LPAW   =        T    paw PP                                                  
   EAUG   =  644.873                                                            
   DEXC   =    0.000                                                            
   RMAX   =    1.529    core radius for proj-oper                               
   RAUG   =    1.300    factor for augmentation sphere                          
   RDEP   =    1.501    radius for radial grids                                 
   RDEPT  =    1.300    core radius for aug-charge                              
                                                                                
   Atomic configuration                                                         
    4 entries                                                                   
     n  l   j            E        occ.                                          
     1  0  0.50      -273.3789   2.0000                                         
     2  0  0.50       -13.7508   2.0000                                         
     2  1  0.50        -5.2854   2.0000                                         
     3  2  1.50        -5.4423   0.0000                                         
   Description                                                                  
     l       E           TYP  RCUT    TYP  RCUT                                 
     0    -13.7508458     23  1.200                                             
     0     -8.2022199     23  1.200                                             
     1     -5.2854383     23  1.500                                             
     1     34.0145650     23  1.500                                             
     2     -5.4423304      7  1.500                                             
  local pseudopotential read in
  partial core-charges read in
  partial kinetic energy density read in
  atomic valenz-charges read in
  non local Contribution for L=           0  read in
    real space projection operators read in
  non local Contribution for L=           0  read in
    real space projection operators read in
  non local Contribution for L=           1  read in
    real space projection operators read in
  non local Contribution for L=           1  read in
    real space projection operators read in
    PAW grid and wavefunctions read in
 
   number of l-projection  operators is LMAX  =           4
   number of lm-projection operators is LMMAX =           8
 
  PAW_PBE H 15Jun2001                   :
 energy of atom  1       EATOM=  -12.4884
 kinetic energy error for atom=    0.0098 (will be added to EATOM!!)
  PAW_PBE C 08Apr2002                   :
 energy of atom  2       EATOM= -147.1560
 kinetic energy error for atom=    0.0288 (will be added to EATOM!!)
 
 
 POSCAR:  H  C                                   
  positions in cartesian coordinates
  No initial velocities read in
 exchange correlation table for  LEXCH =        8
   RHO(1)=    0.500       N(1)  =     2000
   RHO(2)=  100.500       N(2)  =     4000
 


--------------------------------------------------------------------------------------------------------


 ion  position               nearest neighbor table
   1  0.539  0.407  0.360-   5 1.12
   2  0.394  0.480  0.438-   5 1.10
   3  0.552  0.566  0.443-   5 1.10
   4  0.528  0.417  0.539-   5 1.12
   5  0.504  0.467  0.445-   2 1.10   3 1.10   4 1.12   1 1.12
 

IMPORTANT INFORMATION: All symmetrisations will be switched off!
NOSYMM: (Re-)initialisation of all symmetry stuff for point group C_1.

 
 

Automatic generation of k-mesh.
 generate k-points for:    2    2    2
Space group operators:
 irot       det(A)        alpha          n_x          n_y          n_z        tau_x        tau_y        tau_z
    1     1.000000     0.000001     1.000000     0.000000     0.000000     0.000000     0.000000     0.000000
 
 Subroutine IBZKPT returns following result:
 ===========================================
 
 Found      4 irreducible k-points:
 
 Following reciprocal coordinates:
            Coordinates               Weight
  0.250000  0.250000  0.250000      2.000000
 -0.250000  0.250000  0.250000      2.000000
  0.250000 -0.250000  0.250000      2.000000
 -0.250000 -0.250000  0.250000      2.000000
 
 Following cartesian coordinates:
            Coordinates               Weight
  0.025245  0.025330  0.023738      2.000000
 -0.025245  0.023984  0.024109      2.000000
  0.025245 -0.023984  0.024531      2.000000
 -0.025245 -0.025330  0.024902      2.000000
 


--------------------------------------------------------------------------------------------------------




 Dimension of arrays:
   k-points           NKPTS =      4   k-points in BZ     NKDIM =      4   number of bands    NBANDS=      8
   number of dos      NEDOS =    301   number of ions     NIONS =      5
   non local maximal  LDIM  =      4   non local SUM 2l+1 LMDIM =      8
   total plane-waves  NPLWV = 343000
   max r-space proj   IRMAX =      1   max aug-charges    IRDMAX=   4121
   dimension x,y,z NGX =    70 NGY =   70 NGZ =   70
   dimension x,y,z NGXF=   140 NGYF=  140 NGZF=  140
   support grid    NGXF=   140 NGYF=  140 NGZF=  140
   ions per type =               4   1
   NGX,Y,Z   is equivalent  to a cutoff of  11.75, 11.47, 11.32 a.u.
   NGXF,Y,Z  is equivalent  to a cutoff of  23.50, 22.95, 22.64 a.u.

 SYSTEM =  unknown system                          
 POSCAR =   H  C                                   

 Startparameter for this run:
   NWRITE =      2    write-flag & timer
   PREC   = a         normal or accurate (medium, high low for compatibility)
   ISTART =      0    job   : 0-new  1-cont  2-samecut
   ICHARG =      2    charge: 1-file 2-atom 10-const
   ISPIN  =      1    spin polarized calculation?
   LNONCOLLINEAR =      F non collinear calculations
   LSORBIT =      F    spin-orbit coupling
   INIWAV =      1    electr: 0-lowe 1-rand  2-diag
   LASPH  =      F    aspherical Exc in radial PAW
   METAGGA=      F    non-selfconsistent MetaGGA calc.

 Electronic Relaxation 1
   ENCUT  =  400.0 eV  29.40 Ry    5.42 a.u.  16.15 16.54 16.77*2*pi/ulx,y,z
   ENINI  =  400.0     initial cutoff
   ENAUG  =  644.9 eV  augmentation charge cutoff
   NELM   =    120;   NELMIN=  4; NELMDL= -5     # of ELM steps 
   EDIFF  = 0.1E-05   stopping-criterion for ELM
   LREAL  =      F    real-space projection
   NLSPLINE    = F    spline interpolate recip. space projectors
   LCOMPAT=      F    compatible to vasp.4.4
   GGA_COMPAT  = T    GGA compatible to vasp.4.4-vasp.4.6
   LMAXPAW     = -100 max onsite density
   LMAXMIX     =    2 max onsite mixed and CHGCAR
   VOSKOWN=      0    Vosko Wilk Nusair interpolation
   ROPT   =    0.00000   0.00000
 Ionic relaxation
   EDIFFG = 0.1E-04   stopping-criterion for IOM
   NSW    =     10    number of steps for IOM
   NBLOCK =      1;   KBLOCK =     10    inner block; outer block 
   IBRION =      0    ionic relax: 0-MD 1-quasi-New 2-CG
   NFREE  =      0    steps in history (QN), initial steepest desc. (CG)
   ISIF   =      2    stress and relaxation
   IWAVPR =     12    prediction:  0-non 1-charg 2-wave 3-comb
   ISYM   =      0    0-nonsym 1-usesym 2-fastsym
   LCORR  =      T    Harris-Foulkes like correction to forces

   POTIM  = 0.5000    time-step for ionic-motion
   TEIN   =    0.0    initial temperature
   TEBEG  =    0.0;   TEEND  =   0.0 temperature during run
   SMASS  =  -3.00    Nose mass-parameter (am)
   estimated Nose-frequenzy (Omega)   =  0.10E-29 period in steps =****** mass=  -0.224E-26a.u.
   SCALEE = 1.0000    scale energy and forces
   NPACO  =    256;   APACO  = 16.0  distance and # of slots for P.C.
   PSTRESS=    0.0 pullay stress

  Mass of Ions in am
   POMASS =   1.00 12.01
  Ionic Valenz
   ZVAL   =   1.00  4.00
  Atomic Wigner-Seitz radii
   RWIGS  =  -1.00 -1.00
  virtual crystal weights 
   VCA    =   1.00  1.00
   NELECT =       8.0000    total number of electrons
   NUPDOWN=      -1.0000    fix difference up-down

 DOS related values:
   EMIN   =  10.00;   EMAX   =-10.00  energy-range for DOS
   EFERMI =   0.00
   ISMEAR =     0;   SIGMA  =   0.20  broadening in eV -4-tet -1-fermi 0-gaus

 Electronic relaxation 2 (details)
   IALGO  =     68    algorithm
   LDIAG  =      T    sub-space diagonalisation (order eigenvalues)
   LSUBROT=      F    optimize rotation matrix (better conditioning)
   TURBO    =      0    0=normal 1=particle mesh
   IRESTART =      0    0=no restart 2=restart with 2 vectors
   NREBOOT  =      0    no. of reboots
   NMIN     =      0    reboot dimension
   EREF     =   0.00    reference energy to select bands
   IMIX   =      4    mixing-type and parameters
     AMIX     =   0.40;   BMIX     =  1.00
     AMIX_MAG =   1.60;   BMIX_MAG =  1.00
     AMIN     =   0.10
     WC   =   100.;   INIMIX=   1;  MIXPRE=   1;  MAXMIX= -45

 Intra band minimization:
   WEIMIN = 0.0010     energy-eigenvalue tresh-hold
   EBREAK =  0.31E-07  absolut break condition
   DEPER  =   0.30     relativ break condition  

   TIME   =   0.40     timestep for ELM

  volume/ion in A,a.u.               =     206.43      1393.06
  Fermi-wavevector in a.u.,A,eV,Ry     =   0.323984  0.612242  1.428147  0.104966
  Thomas-Fermi vector in A             =   1.213713
 
 Write flags
   LWAVE        =      F    write WAVECAR
   LDOWNSAMPLE  =      F    k-point downsampling of WAVECAR
   LCHARG       =      F    write CHGCAR
   LVTOT        =      F    write LOCPOT, total local potential
   LVHAR        =      F    write LOCPOT, Hartree potential only
   LELF         =      F    write electronic localiz. function (ELF)
   LORBIT       =      0    0 simple, 1 ext, 2 COOP (PROOUT), +10 PAW based schemes


 Dipole corrections
   LMONO  =      F    monopole corrections only (constant potential shift)
   LDIPOL =      F    correct potential (dipole corrections)
   IDIPOL =      0    1-x, 2-y, 3-z, 4-all directions 
   EPSILON=  1.0000000 bulk dielectric constant

 Exchange correlation treatment:
   GGA     =    --    GGA type
   LEXCH   =     8    internal setting for exchange type
   VOSKOWN=      0    Vosko Wilk Nusair interpolation
   LHFCALC =     F    Hartree Fock is set to
   LHFONE  =     F    Hartree Fock one center treatment
   AEXX    =    0.0000 exact exchange contribution

 Linear response parameters
   LEPSILON=     F    determine dielectric tensor
   LRPA    =     F    only Hartree local field effects (RPA)
   LNABLA  =     F    use nabla operator in PAW spheres
   LVEL    =     F    velocity operator in full k-point grid
   LINTERFAST=   F  fast interpolation
   KINTER  =     0    interpolate to denser k-point grid
   CSHIFT  =0.1000    complex shift for real part using Kramers Kronig
   OMEGAMAX=  -1.0    maximum frequency
   DEG_THRESHOLD= 0.2000000E-02 threshold for treating states as degnerate
   RTIME   =   -0.100 relaxation time in fs
  (WPLASMAI=    0.000 imaginary part of plasma frequency in eV, 0.658/RTIME)
   DFIELD  = 0.0000000 0.0000000 0.0000000 field for delta impulse in time
 
 Orbital magnetization related:
   ORBITALMAG=     F  switch on orbital magnetization
   LCHIMAG   =     F  perturbation theory with respect to B field
   DQ        =  0.001000  dq finite difference perturbation B field
   LLRAUG    =     F  two centre corrections for induced B field



--------------------------------------------------------------------------------------------------------


 molecular dynamics for ions
   using a microcanonical ensemble
 charge density and potential will be updated during run
 non-spin polarized calculation
 RMM-DIIS sequential band-by-band and
  variant of blocked Davidson during initial phase
 perform sub-space diagonalisation
    before iterative eigenvector-optimisation
 modified Broyden-mixing scheme, WC =      100.0
 initial mixing is a Kerker type mixing with AMIX =  0.4000 and BMIX =      1.0000
 Hartree-type preconditioning will be used
 using additional bands            4
 reciprocal scheme for non local part
 use partial core corrections
 calculate Harris-corrections to forces 
   (improved forces if not selfconsistent)
 use gradient corrections 
 use of overlap-Matrix (Vanderbilt PP)
 Gauss-broadening in eV      SIGMA  =   0.20


--------------------------------------------------------------------------------------------------------


  energy-cutoff  :      400.00
  volume of cell :     1032.15
      direct lattice vectors                 reciprocal lattice vectors
     9.903090024  0.000000000  0.000000000     0.100978583  0.002691213 -0.000742083
    -0.270217902 10.139005123  0.000000000     0.000000000  0.098629006 -0.001584192
     0.071143433  0.165112317 10.279602352     0.000000000  0.000000000  0.097280028

  length of vectors
     9.903090024 10.142605316 10.281174445     0.101017165  0.098641728  0.097280028


 
 k-points in units of 2pi/SCALE and weight: read from INCAR                         
   0.02524465  0.02533005  0.02373844       0.250
  -0.02524465  0.02398445  0.02410948       0.250
   0.02524465 -0.02398445  0.02453053       0.250
  -0.02524465 -0.02533005  0.02490158       0.250
 
 k-points in reciprocal lattice and weights: read from INCAR                         
   0.25000000  0.25000000  0.25000000       0.250
  -0.25000000  0.25000000  0.25000000       0.250
   0.25000000 -0.25000000  0.25000000       0.250
  -0.25000000 -0.25000000  0.25000000       0.250
 
 position of ions in fractional coordinates (direct lattice) 
   0.53855533  0.40734056  0.36047138
   0.39415365  0.47976487  0.43803485
   0.55163005  0.56588541  0.44320225
   0.52837278  0.41668607  0.53917456
   0.50366174  0.46681025  0.44501020
 
 position of ions in cartesian coordinates  (Angst):
   5.24893642  4.18954626  3.70550242
   3.80486132  4.93666341  4.50282411
   5.34146059  5.81069323  4.55594286
   5.15828594  4.31380653  5.54250009
   4.89332657  4.80646823  4.57452789
 


--------------------------------------------------------------------------------------------------------


 k-point  1 :   0.2500 0.2500 0.2500  plane waves:   18764
 k-point  2 :  -0.2500 0.2500 0.2500  plane waves:   18762
 k-point  3 :   0.2500-0.2500 0.2500  plane waves:   18744
 k-point  4 :  -0.2500-0.2500 0.2500  plane waves:   18753

 maximum and minimum number of plane-waves per node :      4726     4650

 maximum number of plane-waves:     18764
 maximum index in each direction: 
   IXMAX=   16   IYMAX=   16   IZMAX=   16
   IXMIN=  -16   IYMIN=  -16   IZMIN=  -17


 parallel 3D FFT for wavefunctions:
    minimum data exchange during FFTs selected (reduces bandwidth)
 parallel 3D FFT for charge:
    minimum data exchange during FFTs selected (reduces bandwidth)


 total amount of memory used by VASP MPI-rank0    55503. kBytes
=======================================================================

   base      :      30000. kBytes
   nonl-proj :       2787. kBytes
   fftplans  :       8579. kBytes
   grid      :      13527. kBytes
   one-center:          6. kBytes
   wavefun   :        604. kBytes
 
     INWAV:  cpu time    0.0000: real time    0.0001
 Broyden mixing: mesh for mixing (old mesh)
   NGX = 33   NGY = 33   NGZ = 33
  (NGX  =140   NGY  =140   NGZ  =140)
  gives a total of  35937 points

 initial charge density was supplied:
 charge density of overlapping atoms calculated
 number of electron       8.0000000 magnetization 
 keeping initial charge density in first step


--------------------------------------------------------------------------------------------------------


 Maximum index for augmentation-charges          189 (set IRDMAX)


--------------------------------------------------------------------------------------------------------


 First call to EWALD:  gamma=   0.175
 Maximum number of real-space cells 3x 3x 3
 Maximum number of reciprocal cells 3x 3x 3

    FEWALD:  cpu time    0.0037: real time    0.0038


--------------------------------------- Iteration      1(   1)  ---------------------------------------


    POTLOK:  cpu time    0.1795: real time    0.1932
    SETDIJ:  cpu time    0.0050: real time    0.0056
     EDDAV:  cpu time    0.2393: real time    0.2592
       DOS:  cpu time    0.0016: real time    0.0016
    --------------------------------------------
      LOOP:  cpu time    0.4254: real time    0.4597

 eigenvalue-minimisations  :    96
 total energy-change (2. order) : 0.1409121E+02  (-0.1976310E+03)
 number of electron       8.0000000 magnetization 
 augmentation part        8.0000000 magnetization 

 Free energy of the ion-electron system (eV)
  ---------------------------------------------------
  alpha Z        PSCENC =         0.23470526
  Ewald energy   TEWEN  =       127.09244977
  -Hartree energ DENC   =      -243.74309317
  -exchange      EXHF   =         0.00000000
  -V(xc)+E(xc)   XCENC  =        21.93762740
  PAW double counting   =       117.05815612     -117.66307307
  entropy T*S    EENTRO =        -0.00000000
  eigenvalues    EBANDS =       -87.86731305
  atomic energy  EATOM  =       197.04175453
  Solvation  Ediel_sol  =         0.00000000
  ---------------------------------------------------
  free energy    TOTEN  =        14.09121380 eV

  energy without entropy =       14.09121380  energy(sigma->0) =       14.09121380


--------------------------------------------------------------------------------------------------------




--------------------------------------- Iteration      1(   2)  ---------------------------------------


     EDDAV:  cpu time    0.1826: real time    0.1841
       DOS:  cpu time    0.0002: real time    0.0002
    --------------------------------------------
      LOOP:  cpu time    0.1828: real time    0.1843

 eigenvalue-minimisations  :    64
 total energy-change (2. order) :-0.3691913E+02  (-0.3691913E+02)
 number of electron       8.0000000 magnetization 
 augmentation part        8.0000000 magnetization 

 Free energy of the ion-electron system (eV)
  ---------------------------------------------------
  alpha Z        PSCENC =         0.23470526
  Ewald energy   TEWEN  =       127.09244977
  -Hartree energ DENC   =      -243.74309317
  -exchange      EXHF   =         0.00000000
  -V(xc)+E(xc)   XCENC  =        21.93762740
  PAW double counting   =       117.05815612     -117.66307307
  entropy T*S    EENTRO =        -0.00000000
  eigenvalues    EBANDS =      -124.78644188
  atomic energy  EATOM  =       197.04175453
  Solvation  Ediel_sol  =         0.00000000
  ---------------------------------------------------
  free energy    TOTEN  =       -22.82791503 eV

  energy without entropy =      -22.82791503  energy(sigma->0) =      -22.82791503


--------------------------------------------------------------------------------------------------------




--------------------------------------- Iteration      1(   3)  ---------------------------------------


     EDDAV:  cpu time    0.1728: real time    0.1736
       DOS:  cpu time    0.0002: real time    0.0002
    --------------------------------------------
      LOOP:  cpu time    0.1730: real time    0.1738

 eigenvalue-minimisations  :    64
 total energy-change (2. order) :-0.4349747E+01  (-0.4349747E+01)
 number of electron       8.0000000 magnetization 
 augmentation part        8.0000000 magnetization 

 Free energy of the ion-electron system (eV)
  ---------------------------------------------------
  alpha Z        PSCENC =         0.23470526
  Ewald energy   TEWEN  =       127.09244977
  -Hartree energ DENC   =      -243.74309317
  -exchange      EXHF   =         0.00000000
  -V(xc)+E(xc)   XCENC  =        21.93762740
  PAW double counting   =       117.05815612     -117.66307307
  entropy T*S    EENTRO =        -0.00000000
  eigenvalues    EBANDS =      -129.13618867
  atomic energy  EATOM  =       197.04175453
  Solvation  Ediel_sol  =         0.00000000
  ---------------------------------------------------
  free energy    TOTEN  =       -27.17766182 eV

  energy without entropy =      -27.17766182  energy(sigma->0) =      -27.17766182


--------------------------------------------------------------------------------------------------------




--------------------------------------- Iteration      1(   4)  ---------------------------------------


     EDDAV:  cpu time    0.2865: real time    0.2921
       DOS:  cpu time    0.0002: real time    0.0002
    --------------------------------------------
      LOOP:  cpu time    0.2867: real time    0.2924

 eigenvalue-minimisations  :   128
 total energy-change (2. order) :-0.1793311E+00  (-0.1793311E+00)
 number of electron       8.0000000 magnetization 
 augmentation part        8.0000000 magnetization 

 Free energy of the ion-electron system (eV)
  ---------------------------------------------------
  alpha Z        PSCENC =         0.23470526
  Ewald energy   TEWEN  =       127.09244977
  -Hartree energ DENC   =      -243.74309317
  -exchange      EXHF   =         0.00000000
  -V(xc)+E(xc)   XCENC  =        21.93762740
  PAW double counting   =       117.05815612     -117.66307307
  entropy T*S    EENTRO =        -0.00000000
  eigenvalues    EBANDS =      -129.31551972
  atomic energy  EATOM  =       197.04175453
  Solvation  Ediel_sol  =         0.00000000
  ---------------------------------------------------
  free energy    TOTEN  =       -27.35699287 eV

  energy without entropy =      -27.35699287  energy(sigma->0) =      -27.35699287


--------------------------------------------------------------------------------------------------------




--------------------------------------- Iteration      1(   5)  ---------------------------------------


     EDDAV:  cpu time    0.2254: real time    0.2308
       DOS:  cpu time    0.0002: real time    0.0002
    CHARGE:  cpu time    0.0241: real time    0.0243
    MIXING:  cpu time    0.0056: real time    0.0057
    --------------------------------------------
      LOOP:  cpu time    0.2555: real time    0.2610

 eigenvalue-minimisations  :    96
 total energy-change (2. order) :-0.6144903E-04  (-0.6144906E-04)
 number of electron       8.0000002 magnetization 
 augmentation part        0.2205383 magnetization 

 Broyden mixing:
  rms(total) = 0.84830E+00    rms(broyden)= 0.84809E+00
  rms(prec ) = 0.11964E+01
  weight for this iteration     100.00

 Free energy of the ion-electron system (eV)
  ---------------------------------------------------
  alpha Z        PSCENC =         0.23470526
  Ewald energy   TEWEN  =       127.09244977
  -Hartree energ DENC   =      -243.74309317
  -exchange      EXHF   =         0.00000000
  -V(xc)+E(xc)   XCENC  =        21.93762740
  PAW double counting   =       117.05815612     -117.66307307
  entropy T*S    EENTRO =        -0.00000000
  eigenvalues    EBANDS =      -129.31558117
  atomic energy  EATOM  =       197.04175453
  Solvation  Ediel_sol  =         0.00000000
  ---------------------------------------------------
  free energy    TOTEN  =       -27.35705432 eV

  energy without entropy =      -27.35705432  energy(sigma->0) =      -27.35705432


--------------------------------------------------------------------------------------------------------




--------------------------------------- Iteration      1(   6)  ---------------------------------------


    POTLOK:  cpu time    0.1760: real time    0.1789
    SETDIJ:  cpu time    0.0028: real time    0.0029
    EDDIAG:  cpu time    0.0527: real time    0.0626
  RMM-DIIS:  cpu time    0.1853: real time    0.1873
    ORTHCH:  cpu time    0.0018: real time    0.0018
       DOS:  cpu time    0.0002: real time    0.0002
    CHARGE:  cpu time    0.0226: real time    0.0229
    MIXING:  cpu time    0.0058: real time    0.0075
    --------------------------------------------
      LOOP:  cpu time    0.4473: real time    0.4640

 eigenvalue-minimisations  :    64
 total energy-change (2. order) : 0.2744550E+01  (-0.5033747E+00)
 number of electron       8.0000001 magnetization 
 augmentation part        0.1944185 magnetization 

 Broyden mixing:
  rms(total) = 0.41939E+00    rms(broyden)= 0.41930E+00
  rms(prec ) = 0.54101E+00
  weight for this iteration     100.00

 eigenvalues of (default mixing * dielectric matrix)
  average eigenvalue GAMMA=   1.2953
  1.2953

 Free energy of the ion-electron system (eV)
  ---------------------------------------------------
  alpha Z        PSCENC =         0.23470526
  Ewald energy   TEWEN  =       127.09244977
  -Hartree energ DENC   =      -262.95723754
  -exchange      EXHF   =         0.00000000
  -V(xc)+E(xc)   XCENC  =        23.10418046
  PAW double counting   =       234.09748766     -234.87015305
  entropy T*S    EENTRO =        -0.00000000
  eigenvalues    EBANDS =      -108.35569134
  atomic energy  EATOM  =       197.04175453
  Solvation  Ediel_sol  =         0.00000000
  ---------------------------------------------------
  free energy    TOTEN  =       -24.61250424 eV

  energy without entropy =      -24.61250424  energy(sigma->0) =      -24.61250424


--------------------------------------------------------------------------------------------------------




--------------------------------------- Iteration      1(   7)  ---------------------------------------


    POTLOK:  cpu time    0.1656: real time    0.1688
    SETDIJ:  cpu time    0.0029: real time    0.0030
    EDDIAG:  cpu time    0.0449: real time    0.0455
  RMM-DIIS:  cpu time    0.1786: real time    0.1807
    ORTHCH:  cpu time    0.0018: real time    0.0019
       DOS:  cpu time    0.0002: real time    0.0002
    CHARGE:  cpu time    0.0206: real time    0.0208
    MIXING:  cpu time    0.0057: real time    0.0057
    --------------------------------------------
      LOOP:  cpu time    0.4204: real time    0.4265

 eigenvalue-minimisations  :    64
 total energy-change (2. order) : 0.4650926E+00  (-0.1086919E+00)
 number of electron       8.0000001 magnetization 
 augmentation part        0.1844656 magnetization 

 Broyden mixing:
  rms(total) = 0.22416E+00    rms(broyden)= 0.22411E+00
  rms(prec ) = 0.27075E+00
  weight for this iteration     100.00

 eigenvalues of (default mixing * dielectric matrix)
  average eigenvalue GAMMA=   1.8381
  1.4410  2.2353

 Free energy of the ion-electron system (eV)
  ---------------------------------------------------
  alpha Z        PSCENC =         0.23470526
  Ewald energy   TEWEN  =       127.09244977
  -Hartree energ DENC   =      -274.12438806
  -exchange      EXHF   =         0.00000000
  -V(xc)+E(xc)   XCENC  =        23.92906260
  PAW double counting   =       353.30892140     -354.11686263
  entropy T*S    EENTRO =        -0.00000000
  eigenvalues    EBANDS =       -97.51305452
  atomic energy  EATOM  =       197.04175453
  Solvation  Ediel_sol  =         0.00000000
  ---------------------------------------------------
  free energy    TOTEN  =       -24.14741163 eV

  energy without entropy =      -24.14741163  energy(sigma->0) =      -24.14741163


--------------------------------------------------------------------------------------------------------




--------------------------------------- Iteration      1(   8)  ---------------------------------------


    POTLOK:  cpu time    0.1621: real time    0.1651
    SETDIJ:  cpu time    0.0032: real time    0.0032
    EDDIAG:  cpu time    0.0453: real time    0.0458
  RMM-DIIS:  cpu time    0.1848: real time    0.1888
    ORTHCH:  cpu time    0.0018: real time    0.0018
       DOS:  cpu time    0.0002: real time    0.0002
    CHARGE:  cpu time    0.0218: real time    0.0220
    MIXING:  cpu time    0.0059: real time    0.0060
    --------------------------------------------
      LOOP:  cpu time    0.4251: real time    0.4329

 eigenvalue-minimisations  :    64
 total energy-change (2. order) : 0.1440149E+00  (-0.1626940E-01)
 number of electron       8.0000001 magnetization 
 augmentation part        0.1831162 magnetization 

 Broyden mixing:
  rms(total) = 0.22859E-01    rms(broyden)= 0.22836E-01
  rms(prec ) = 0.51832E-01
  weight for this iteration     100.00

 eigenvalues of (default mixing * dielectric matrix)
  average eigenvalue GAMMA=   1.5404
  2.2477  0.9821  1.3913

 Free energy of the ion-electron system (eV)
  ---------------------------------------------------
  alpha Z        PSCENC =         0.23470526
  Ewald energy   TEWEN  =       127.09244977
  -Hartree energ DENC   =      -279.51635076
  -exchange      EXHF   =         0.00000000
  -V(xc)+E(xc)   XCENC  =        24.46356476
  PAW double counting   =       456.98879381     -457.76545051
  entropy T*S    EENTRO =        -0.00000000
  eigenvalues    EBANDS =       -92.54286361
  atomic energy  EATOM  =       197.04175453
  Solvation  Ediel_sol  =         0.00000000
  ---------------------------------------------------
  free energy    TOTEN  =       -24.00339675 eV

  energy without entropy =      -24.00339675  energy(sigma->0) =      -24.00339675


--------------------------------------------------------------------------------------------------------




--------------------------------------- Iteration      1(   9)  ---------------------------------------


    POTLOK:  cpu time    0.1634: real time    0.1665
    SETDIJ:  cpu time    0.0028: real time    0.0028
    EDDIAG:  cpu time    0.0459: real time    0.0465
  RMM-DIIS:  cpu time    0.1775: real time    0.1819
    ORTHCH:  cpu time    0.0020: real time    0.0020
       DOS:  cpu time    0.0002: real time    0.0002
    CHARGE:  cpu time    0.0208: real time    0.0211
    MIXING:  cpu time    0.0062: real time    0.0073
    --------------------------------------------
      LOOP:  cpu time    0.4187: real time    0.4283

 eigenvalue-minimisations  :    64
 total energy-change (2. order) : 0.5556329E-02  (-0.1075235E-02)
 number of electron       8.0000001 magnetization 
 augmentation part        0.1825692 magnetization 

 Broyden mixing:
  rms(total) = 0.19219E-01    rms(broyden)= 0.19215E-01
  rms(prec ) = 0.39576E-01
  weight for this iteration     100.00

 eigenvalues of (default mixing * dielectric matrix)
  average eigenvalue GAMMA=   2.0794
  1.0041  1.3590  2.9772  2.9772

 Free energy of the ion-electron system (eV)
  ---------------------------------------------------
  alpha Z        PSCENC =         0.23470526
  Ewald energy   TEWEN  =       127.09244977
  -Hartree energ DENC   =      -280.74508338
  -exchange      EXHF   =         0.00000000
  -V(xc)+E(xc)   XCENC  =        24.53035477
  PAW double counting   =       459.58302253     -460.36243539
  entropy T*S    EENTRO =        -0.00000000
  eigenvalues    EBANDS =       -91.37260852
  atomic energy  EATOM  =       197.04175453
  Solvation  Ediel_sol  =         0.00000000
  ---------------------------------------------------
  free energy    TOTEN  =       -23.99784043 eV

  energy without entropy =      -23.99784043  energy(sigma->0) =      -23.99784043


--------------------------------------------------------------------------------------------------------




--------------------------------------- Iteration      1(  10)  ---------------------------------------


    POTLOK:  cpu time    0.1575: real time    0.1599
    SETDIJ:  cpu time    0.0028: real time    0.0029
    EDDIAG:  cpu time    0.0463: real time    0.0468
  RMM-DIIS:  cpu time    0.1798: real time    0.1829
    ORTHCH:  cpu time    0.0018: real time    0.0018
       DOS:  cpu time    0.0002: real time    0.0002
    CHARGE:  cpu time    0.0220: real time    0.0221
    MIXING:  cpu time    0.0061: real time    0.0062
    --------------------------------------------
      LOOP:  cpu time    0.4165: real time    0.4228

 eigenvalue-minimisations  :    64
 total energy-change (2. order) : 0.6383835E-02  (-0.2433864E-02)
 number of electron       8.0000001 magnetization 
 augmentation part        0.1815446 magnetization 

 Broyden mixing:
  rms(total) = 0.27006E-01    rms(broyden)= 0.27004E-01
  rms(prec ) = 0.34576E-01
  weight for this iteration     100.00

 eigenvalues of (default mixing * dielectric matrix)
  average eigenvalue GAMMA=   1.7880
  3.0630  2.3941  0.9850  1.2489  1.2489

 Free energy of the ion-electron system (eV)
  ---------------------------------------------------
  alpha Z        PSCENC =         0.23470526
  Ewald energy   TEWEN  =       127.09244977
  -Hartree energ DENC   =      -282.91133547
  -exchange      EXHF   =         0.00000000
  -V(xc)+E(xc)   XCENC  =        24.60071369
  PAW double counting   =       444.54966822     -445.33244912
  entropy T*S    EENTRO =        -0.00000000
  eigenvalues    EBANDS =       -89.26696347
  atomic energy  EATOM  =       197.04175453
  Solvation  Ediel_sol  =         0.00000000
  ---------------------------------------------------
  free energy    TOTEN  =       -23.99145659 eV

  energy without entropy =      -23.99145659  energy(sigma->0) =      -23.99145659


--------------------------------------------------------------------------------------------------------




--------------------------------------- Iteration      1(  11)  ---------------------------------------


    POTLOK:  cpu time    0.1543: real time    0.1557
    SETDIJ:  cpu time    0.0030: real time    0.0031
    EDDIAG:  cpu time    0.0444: real time    0.0450
  RMM-DIIS:  cpu time    0.1796: real time    0.1816
    ORTHCH:  cpu time    0.0019: real time    0.0020
       DOS:  cpu time    0.0002: real time    0.0002
    CHARGE:  cpu time    0.0198: real time    0.0201
    MIXING:  cpu time    0.0060: real time    0.0061
    --------------------------------------------
      LOOP:  cpu time    0.4094: real time    0.4136

 eigenvalue-minimisations  :    64
 total energy-change (2. order) :-0.9250053E-03  (-0.9100381E-03)
 number of electron       8.0000001 magnetization 
 augmentation part        0.1819364 magnetization 

 Broyden mixing:
  rms(total) = 0.97599E-02    rms(broyden)= 0.97567E-02
  rms(prec ) = 0.15256E-01
  weight for this iteration     100.00

 eigenvalues of (default mixing * dielectric matrix)
  average eigenvalue GAMMA=   2.2567
  4.7668  3.0533  2.4224  1.2562  1.0206  1.0206

 Free energy of the ion-electron system (eV)
  ---------------------------------------------------
  alpha Z        PSCENC =         0.23470526
  Ewald energy   TEWEN  =       127.09244977
  -Hartree energ DENC   =      -282.80449404
  -exchange      EXHF   =         0.00000000
  -V(xc)+E(xc)   XCENC  =        24.61520335
  PAW double counting   =       453.44991422     -454.22494161
  entropy T*S    EENTRO =        -0.00000000
  eigenvalues    EBANDS =       -89.39697308
  atomic energy  EATOM  =       197.04175453
  Solvation  Ediel_sol  =         0.00000000
  ---------------------------------------------------
  free energy    TOTEN  =       -23.99238160 eV

  energy without entropy =      -23.99238159  energy(sigma->0) =      -23.99238159


--------------------------------------------------------------------------------------------------------




--------------------------------------- Iteration      1(  12)  ---------------------------------------


    POTLOK:  cpu time    0.1447: real time    0.1466
    SETDIJ:  cpu time    0.0030: real time    0.0031
    EDDIAG:  cpu time    0.0433: real time    0.0438
  RMM-DIIS:  cpu time    0.1781: real time    0.1809
    ORTHCH:  cpu time    0.0019: real time    0.0019
       DOS:  cpu time    0.0002: real time    0.0002
    CHARGE:  cpu time    0.0201: real time    0.0203
    MIXING:  cpu time    0.0064: real time    0.0064
    --------------------------------------------
      LOOP:  cpu time    0.3978: real time    0.4033

 eigenvalue-minimisations  :    64
 total energy-change (2. order) :-0.9031924E-02  (-0.2681638E-03)
 number of electron       8.0000001 magnetization 
 augmentation part        0.1820993 magnetization 

 Broyden mixing:
  rms(total) = 0.11342E-01    rms(broyden)= 0.11341E-01
  rms(prec ) = 0.14926E-01
  weight for this iteration     100.00

 eigenvalues of (default mixing * dielectric matrix)
  average eigenvalue GAMMA=   2.0091
  4.7385  2.9057  2.4154  1.1845  1.0189  1.0189  0.7817

 Free energy of the ion-electron system (eV)
  ---------------------------------------------------
  alpha Z        PSCENC =         0.23470526
  Ewald energy   TEWEN  =       127.09244977
  -Hartree energ DENC   =      -283.03634338
  -exchange      EXHF   =         0.00000000
  -V(xc)+E(xc)   XCENC  =        24.60723606
  PAW double counting   =       449.99054261     -450.76516798
  entropy T*S    EENTRO =        -0.00000000
  eigenvalues    EBANDS =       -89.16659039
  atomic energy  EATOM  =       197.04175453
  Solvation  Ediel_sol  =         0.00000000
  ---------------------------------------------------
  free energy    TOTEN  =       -24.00141352 eV

  energy without entropy =      -24.00141352  energy(sigma->0) =      -24.00141352


--------------------------------------------------------------------------------------------------------




--------------------------------------- Iteration      1(  13)  ---------------------------------------


    POTLOK:  cpu time    0.1453: real time    0.1476
    SETDIJ:  cpu time    0.0032: real time    0.0033
    EDDIAG:  cpu time    0.1081: real time    0.1090
  RMM-DIIS:  cpu time    0.1740: real time    0.1799
    ORTHCH:  cpu time    0.0019: real time    0.0019
       DOS:  cpu time    0.0002: real time    0.0002
    CHARGE:  cpu time    0.0205: real time    0.0208
    MIXING:  cpu time    0.0068: real time    0.0068
    --------------------------------------------
      LOOP:  cpu time    0.4599: real time    0.4695

 eigenvalue-minimisations  :    64
 total energy-change (2. order) :-0.7006115E-03  (-0.1134947E-03)
 number of electron       8.0000001 magnetization 
 augmentation part        0.1818404 magnetization 

 Broyden mixing:
  rms(total) = 0.35940E-02    rms(broyden)= 0.35935E-02
  rms(prec ) = 0.53358E-02
  weight for this iteration     100.00

 eigenvalues of (default mixing * dielectric matrix)
  average eigenvalue GAMMA=   2.4056
  6.0522  4.0866  2.4259  2.3600  1.2188  1.2188  0.9879  0.8945

 Free energy of the ion-electron system (eV)
  ---------------------------------------------------
  alpha Z        PSCENC =         0.23470526
  Ewald energy   TEWEN  =       127.09244977
  -Hartree energ DENC   =      -283.21685756
  -exchange      EXHF   =         0.00000000
  -V(xc)+E(xc)   XCENC  =        24.61195869
  PAW double counting   =       449.77947246     -450.55646872
  entropy T*S    EENTRO =        -0.00000000
  eigenvalues    EBANDS =       -88.98912858
  atomic energy  EATOM  =       197.04175453
  Solvation  Ediel_sol  =         0.00000000
  ---------------------------------------------------
  free energy    TOTEN  =       -24.00211413 eV

  energy without entropy =      -24.00211413  energy(sigma->0) =      -24.00211413


--------------------------------------------------------------------------------------------------------




--------------------------------------- Iteration      1(  14)  ---------------------------------------


    POTLOK:  cpu time    0.1397: real time    0.1437
    SETDIJ:  cpu time    0.0030: real time    0.0030
    EDDIAG:  cpu time    0.0435: real time    0.0440
  RMM-DIIS:  cpu time    0.1778: real time    0.1806
    ORTHCH:  cpu time    0.0017: real time    0.0017
       DOS:  cpu time    0.0002: real time    0.0002
    CHARGE:  cpu time    0.0200: real time    0.0203
    MIXING:  cpu time    0.0067: real time    0.0067
    --------------------------------------------
      LOOP:  cpu time    0.3926: real time    0.4003

 eigenvalue-minimisations  :    64
 total energy-change (2. order) :-0.2831842E-02  (-0.9470396E-04)
 number of electron       8.0000001 magnetization 
 augmentation part        0.1817633 magnetization 

 Broyden mixing:
  rms(total) = 0.19989E-02    rms(broyden)= 0.19975E-02
  rms(prec ) = 0.27279E-02
  weight for this iteration     100.00

 eigenvalues of (default mixing * dielectric matrix)
  average eigenvalue GAMMA=   2.3363
  6.3744  3.7429  2.6828  2.2850  1.5790  1.2286  1.2286  0.9870  0.9181

 Free energy of the ion-electron system (eV)
  ---------------------------------------------------
  alpha Z        PSCENC =         0.23470526
  Ewald energy   TEWEN  =       127.09244977
  -Hartree energ DENC   =      -283.18760126
  -exchange      EXHF   =         0.00000000
  -V(xc)+E(xc)   XCENC  =        24.60132401
  PAW double counting   =       449.28563990     -450.06340984
  entropy T*S    EENTRO =        -0.00000000
  eigenvalues    EBANDS =       -89.00980835
  atomic energy  EATOM  =       197.04175453
  Solvation  Ediel_sol  =         0.00000000
  ---------------------------------------------------
  free energy    TOTEN  =       -24.00494597 eV

  energy without entropy =      -24.00494597  energy(sigma->0) =      -24.00494597


--------------------------------------------------------------------------------------------------------




--------------------------------------- Iteration      1(  15)  ---------------------------------------


    POTLOK:  cpu time    0.1438: real time    0.1450
    SETDIJ:  cpu time    0.0032: real time    0.0032
    EDDIAG:  cpu time    0.0452: real time    0.0455
  RMM-DIIS:  cpu time    0.1812: real time    0.1819
    ORTHCH:  cpu time    0.0018: real time    0.0018
       DOS:  cpu time    0.0002: real time    0.0002
    CHARGE:  cpu time    0.0210: real time    0.0211
    MIXING:  cpu time    0.0070: real time    0.0070
    --------------------------------------------
      LOOP:  cpu time    0.4034: real time    0.4058

 eigenvalue-minimisations  :    64
 total energy-change (2. order) :-0.2792097E-03  (-0.4935590E-05)
 number of electron       8.0000001 magnetization 
 augmentation part        0.1817041 magnetization 

 Broyden mixing:
  rms(total) = 0.17142E-02    rms(broyden)= 0.17140E-02
  rms(prec ) = 0.23326E-02
  weight for this iteration     100.00

 eigenvalues of (default mixing * dielectric matrix)
  average eigenvalue GAMMA=   2.5056
  7.4850  4.7380  2.8075  2.5719  2.1123  1.2439  1.2439  0.9799  0.9799  0.8935

 Free energy of the ion-electron system (eV)
  ---------------------------------------------------
  alpha Z        PSCENC =         0.23470526
  Ewald energy   TEWEN  =       127.09244977
  -Hartree energ DENC   =      -283.22201450
  -exchange      EXHF   =         0.00000000
  -V(xc)+E(xc)   XCENC  =        24.60366991
  PAW double counting   =       449.40377748     -450.18130085
  entropy T*S    EENTRO =        -0.00000000
  eigenvalues    EBANDS =       -88.97826679
  atomic energy  EATOM  =       197.04175453
  Solvation  Ediel_sol  =         0.00000000
  ---------------------------------------------------
  free energy    TOTEN  =       -24.00522518 eV

  energy without entropy =      -24.00522518  energy(sigma->0) =      -24.00522518


--------------------------------------------------------------------------------------------------------




--------------------------------------- Iteration      1(  16)  ---------------------------------------


    POTLOK:  cpu time    0.1449: real time    0.1459
    SETDIJ:  cpu time    0.0028: real time    0.0028
    EDDIAG:  cpu time    0.0449: real time    0.0452
  RMM-DIIS:  cpu time    0.1784: real time    0.1792
    ORTHCH:  cpu time    0.0020: real time    0.0021
       DOS:  cpu time    0.0002: real time    0.0002
    CHARGE:  cpu time    0.0209: real time    0.0211
    MIXING:  cpu time    0.0073: real time    0.0073
    --------------------------------------------
      LOOP:  cpu time    0.4014: real time    0.4037

 eigenvalue-minimisations  :    64
 total energy-change (2. order) :-0.2130125E-03  (-0.7881732E-05)
 number of electron       8.0000001 magnetization 
 augmentation part        0.1817478 magnetization 

 Broyden mixing:
  rms(total) = 0.22503E-03    rms(broyden)= 0.22452E-03
  rms(prec ) = 0.37982E-03
  weight for this iteration     100.00

 eigenvalues of (default mixing * dielectric matrix)
  average eigenvalue GAMMA=   2.5297
  7.7645  4.8897  3.1480  2.4429  2.1493  2.1493  1.2212  1.2212  1.0020  0.9191
  0.9191

 Free energy of the ion-electron system (eV)
  ---------------------------------------------------
  alpha Z        PSCENC =         0.23470526
  Ewald energy   TEWEN  =       127.09244977
  -Hartree energ DENC   =      -283.17277154
  -exchange      EXHF   =         0.00000000
  -V(xc)+E(xc)   XCENC  =        24.60152477
  PAW double counting   =       449.35325640     -450.13029047
  entropy T*S    EENTRO =        -0.00000000
  eigenvalues    EBANDS =       -89.02606692
  atomic energy  EATOM  =       197.04175453
  Solvation  Ediel_sol  =         0.00000000
  ---------------------------------------------------
  free energy    TOTEN  =       -24.00543819 eV

  energy without entropy =      -24.00543819  energy(sigma->0) =      -24.00543819


--------------------------------------------------------------------------------------------------------




--------------------------------------- Iteration      1(  17)  ---------------------------------------


    POTLOK:  cpu time    0.1464: real time    0.1472
    SETDIJ:  cpu time    0.0028: real time    0.0028
    EDDIAG:  cpu time    0.0438: real time    0.0440
  RMM-DIIS:  cpu time    0.1774: real time    0.1782
    ORTHCH:  cpu time    0.0018: real time    0.0018
       DOS:  cpu time    0.0002: real time    0.0002
    CHARGE:  cpu time    0.0201: real time    0.0203
    MIXING:  cpu time    0.0073: real time    0.0074
    --------------------------------------------
      LOOP:  cpu time    0.3999: real time    0.4018

 eigenvalue-minimisations  :    64
 total energy-change (2. order) :-0.5022442E-04  (-0.9398264E-06)
 number of electron       8.0000001 magnetization 
 augmentation part        0.1817339 magnetization 

 Broyden mixing:
  rms(total) = 0.46536E-03    rms(broyden)= 0.46536E-03
  rms(prec ) = 0.62887E-03
  weight for this iteration     100.00

 eigenvalues of (default mixing * dielectric matrix)
  average eigenvalue GAMMA=   2.5915
  8.5122  5.3022  3.9349  2.5178  2.5178  1.7651  1.2834  1.2834  1.1598  0.9889
  0.9165  0.9165

 Free energy of the ion-electron system (eV)
  ---------------------------------------------------
  alpha Z        PSCENC =         0.23470526
  Ewald energy   TEWEN  =       127.09244977
  -Hartree energ DENC   =      -283.20252501
  -exchange      EXHF   =         0.00000000
  -V(xc)+E(xc)   XCENC  =        24.60283077
  PAW double counting   =       449.34193666     -450.11916779
  entropy T*S    EENTRO =        -0.00000000
  eigenvalues    EBANDS =       -88.99747261
  atomic energy  EATOM  =       197.04175453
  Solvation  Ediel_sol  =         0.00000000
  ---------------------------------------------------
  free energy    TOTEN  =       -24.00548842 eV

  energy without entropy =      -24.00548842  energy(sigma->0) =      -24.00548842


--------------------------------------------------------------------------------------------------------




--------------------------------------- Iteration      1(  18)  ---------------------------------------


    POTLOK:  cpu time    0.1508: real time    0.1515
    SETDIJ:  cpu time    0.0030: real time    0.0030
    EDDIAG:  cpu time    0.0441: real time    0.0443
  RMM-DIIS:  cpu time    0.1773: real time    0.1786
    ORTHCH:  cpu time    0.0029: real time    0.0029
       DOS:  cpu time    0.0002: real time    0.0002
    CHARGE:  cpu time    0.0202: real time    0.0202
    MIXING:  cpu time    0.0073: real time    0.0073
    --------------------------------------------
      LOOP:  cpu time    0.4057: real time    0.4080

 eigenvalue-minimisations  :    64
 total energy-change (2. order) :-0.1062142E-04  (-0.4870821E-06)
 number of electron       8.0000001 magnetization 
 augmentation part        0.1817465 magnetization 

 Broyden mixing:
  rms(total) = 0.11769E-03    rms(broyden)= 0.11755E-03
  rms(prec ) = 0.15030E-03
  weight for this iteration     100.00

 eigenvalues of (default mixing * dielectric matrix)
  average eigenvalue GAMMA=   2.6392
  8.5471  5.5073  3.6530  3.2189  2.5092  2.5092  1.9779  1.2423  1.2423  1.0458
  0.9070  0.9746  0.9746

 Free energy of the ion-electron system (eV)
  ---------------------------------------------------
  alpha Z        PSCENC =         0.23470526
  Ewald energy   TEWEN  =       127.09244977
  -Hartree energ DENC   =      -283.18795346
  -exchange      EXHF   =         0.00000000
  -V(xc)+E(xc)   XCENC  =        24.60224694
  PAW double counting   =       449.37543807     -450.15251976
  entropy T*S    EENTRO =        -0.00000000
  eigenvalues    EBANDS =       -89.01162039
  atomic energy  EATOM  =       197.04175453
  Solvation  Ediel_sol  =         0.00000000
  ---------------------------------------------------
  free energy    TOTEN  =       -24.00549904 eV

  energy without entropy =      -24.00549904  energy(sigma->0) =      -24.00549904


--------------------------------------------------------------------------------------------------------




--------------------------------------- Iteration      1(  19)  ---------------------------------------


    POTLOK:  cpu time    0.1510: real time    0.1518
    SETDIJ:  cpu time    0.0027: real time    0.0027
    EDDIAG:  cpu time    0.0452: real time    0.0454
  RMM-DIIS:  cpu time    0.1450: real time    0.1456
    ORTHCH:  cpu time    0.0017: real time    0.0017
       DOS:  cpu time    0.0002: real time    0.0002
    CHARGE:  cpu time    0.0197: real time    0.0199
    MIXING:  cpu time    0.0077: real time    0.0077
    --------------------------------------------
      LOOP:  cpu time    0.3732: real time    0.3750

 eigenvalue-minimisations  :    48
 total energy-change (2. order) :-0.4664789E-05  (-0.4482103E-07)
 number of electron       8.0000001 magnetization 
 augmentation part        0.1817505 magnetization 

 Broyden mixing:
  rms(total) = 0.13837E-03    rms(broyden)= 0.13835E-03
  rms(prec ) = 0.18795E-03
  weight for this iteration     100.00

 eigenvalues of (default mixing * dielectric matrix)
  average eigenvalue GAMMA=   2.5649
  8.6362  5.6217  3.9524  3.6259  2.4339  2.4339  1.9634  1.2452  1.2452  1.0498
  0.9259  0.9259  0.9244  0.9244

 Free energy of the ion-electron system (eV)
  ---------------------------------------------------
  alpha Z        PSCENC =         0.23470526
  Ewald energy   TEWEN  =       127.09244977
  -Hartree energ DENC   =      -283.18376781
  -exchange      EXHF   =         0.00000000
  -V(xc)+E(xc)   XCENC  =        24.60190335
  PAW double counting   =       449.34883436     -450.12590951
  entropy T*S    EENTRO =        -0.00000000
  eigenvalues    EBANDS =       -89.01547367
  atomic energy  EATOM  =       197.04175453
  Solvation  Ediel_sol  =         0.00000000
  ---------------------------------------------------
  free energy    TOTEN  =       -24.00550371 eV

  energy without entropy =      -24.00550371  energy(sigma->0) =      -24.00550371


--------------------------------------------------------------------------------------------------------




--------------------------------------- Iteration      1(  20)  ---------------------------------------


    POTLOK:  cpu time    0.1529: real time    0.1537
    SETDIJ:  cpu time    0.0037: real time    0.0037
    EDDIAG:  cpu time    0.0443: real time    0.0446
  RMM-DIIS:  cpu time    0.1487: real time    0.1495
    ORTHCH:  cpu time    0.0017: real time    0.0017
       DOS:  cpu time    0.0002: real time    0.0002
    --------------------------------------------
      LOOP:  cpu time    0.3514: real time    0.3533

 eigenvalue-minimisations  :    48
 total energy-change (2. order) :-0.5415889E-06  (-0.3062957E-07)
 number of electron       8.0000001 magnetization 
 augmentation part        0.1817505 magnetization 

 Free energy of the ion-electron system (eV)
  ---------------------------------------------------
  alpha Z        PSCENC =         0.23470526
  Ewald energy   TEWEN  =       127.09244977
  -Hartree energ DENC   =      -283.18726368
  -exchange      EXHF   =         0.00000000
  -V(xc)+E(xc)   XCENC  =        24.60203215
  PAW double counting   =       449.34980935     -450.12693549
  entropy T*S    EENTRO =        -0.00000000
  eigenvalues    EBANDS =       -89.01205614
  atomic energy  EATOM  =       197.04175453
  Solvation  Ediel_sol  =         0.00000000
  ---------------------------------------------------
  free energy    TOTEN  =       -24.00550425 eV

  energy without entropy =      -24.00550425  energy(sigma->0) =      -24.00550425


--------------------------------------------------------------------------------------------------------




 average (electrostatic) potential at core
  the test charge radii are     0.5201  0.6991
  (the norm of the test charge is              1.0000)
       1 -41.3423       2 -41.4872       3 -41.4825       4 -41.3680       5 -58.0447
 
 
 
 E-fermi :  -8.1893     XC(G=0):  -0.6853     alpha+bet : -0.2041


 k-point     1 :       0.2500    0.2500    0.2500
  band No.  band energies     occupation 
      1     -16.7914      2.00000
      2      -9.2980      2.00000
      3      -9.2741      2.00000
      4      -9.1426      2.00000
      5      -0.3362      0.00000
      6       0.5398      0.00000
      7       0.6561      0.00000
      8       0.6774      0.00000

 k-point     2 :      -0.2500    0.2500    0.2500
  band No.  band energies     occupation 
      1     -16.7915      2.00000
      2      -9.2980      2.00000
      3      -9.2741      2.00000
      4      -9.1425      2.00000
      5      -0.3395      0.00000
      6       0.5383      0.00000
      7       0.6567      0.00000
      8       0.6968      0.00000

 k-point     3 :       0.2500   -0.2500    0.2500
  band No.  band energies     occupation 
      1     -16.7914      2.00000
      2      -9.2980      2.00000
      3      -9.2740      2.00000
      4      -9.1425      2.00000
      5      -0.3381      0.00000
      6       0.5329      0.00000
      7       0.6509      0.00000
      8       0.6993      0.00000

 k-point     4 :      -0.2500   -0.2500    0.2500
  band No.  band energies     occupation 
      1     -16.7914      2.00000
      2      -9.2979      2.00000
      3      -9.2741      2.00000
      4      -9.1426      2.00000
      5      -0.3322      0.00000
      6       0.5303      0.00000
      7       0.6447      0.00000
      8       0.6670      0.00000


--------------------------------------------------------------------------------------------------------


 soft charge-density along one line, spin component           1
         0         1         2         3         4         5         6         7         8         9
 total charge-density along one line
 
 pseudopotential strength for first ion, spin component:           1
 -2.340  -4.032  -0.001  -0.001   0.001
 -4.032  -6.861  -0.003  -0.004   0.002
 -0.001  -0.003  -0.339   0.002  -0.001
 -0.001  -0.004   0.002  -0.337  -0.001
  0.001   0.002  -0.001  -0.001  -0.340
 total augmentation occupancy for first ion, spin component:           1
  3.443  -0.622   0.220   0.311  -0.126
 -0.622   0.125  -0.041  -0.058   0.024
  0.220  -0.041   0.020   0.017  -0.007
  0.311  -0.058   0.017   0.031  -0.010
 -0.126   0.024  -0.007  -0.010   0.012


------------------------ aborting loop because EDIFF is reached ----------------------------------------


    CHARGE:  cpu time    0.0204: real time    0.0206
    FORLOC:  cpu time    0.0160: real time    0.0161
    FORNL :  cpu time    0.0229: real time    0.0231
    STRESS:  cpu time    0.1827: real time    0.1852
    FORCOR:  cpu time    0.1459: real time    0.1493
    FORHAR:  cpu time    0.0494: real time    0.0501
    MIXING:  cpu time    0.0070: real time    0.0070
    OFIELD:  cpu time    0.0000: real time    0.0000

  FORCE on cell =-STRESS in cart. coord.  units (eV):
  Direction    XX          YY          ZZ          XY          YZ          ZX
  --------------------------------------------------------------------------------------
  Alpha Z     0.23471     0.23471     0.23471
  Ewald      43.78041    42.67938    40.63264    -1.43433     1.23261     1.28207
  Hartree    96.32314    94.12490    92.74087    -0.76734     0.56204     0.37647
  E(xc)     -27.07070   -27.05680   -27.05126    -0.00845     0.00687     0.00574
  Local    -199.03506  -195.54507  -192.46128     2.10483    -1.66879    -1.41984
  n-local   -15.64120   -15.59283   -15.51192    -0.03133     0.01781    -0.00940
  augment     0.12127     0.12039     0.12445     0.00014    -0.00060    -0.00179
  Kinetic   100.84956   100.11656    99.75670     0.45390    -0.35109    -0.25473
  Fock        0.00000     0.00000     0.00000     0.00000     0.00000     0.00000
  -------------------------------------------------------------------------------------
  Total      -0.43788    -0.91877    -1.53509     0.31740    -0.20115    -0.02147
  in kB      -0.67970    -1.42618    -2.38289     0.49270    -0.31225    -0.03332
  external pressure =       -1.50 kB  Pullay stress =        0.00 kB

  kinetic pressure (ideal gas correction) =      0.00 kB
  total pressure  =     -1.50 kB
  Total+kin.    -0.680      -1.426      -2.383       0.493      -0.312      -0.033

 VOLUME and BASIS-vectors are now :
 -----------------------------------------------------------------------------
  energy-cutoff  :      400.00
  volume of cell :     1032.15
      direct lattice vectors                 reciprocal lattice vectors
     9.903090024  0.000000000  0.000000000     0.100978583  0.002691213 -0.000742083
    -0.270217902 10.139005123  0.000000000     0.000000000  0.098629006 -0.001584192
     0.071143433  0.165112317 10.279602352     0.000000000  0.000000000  0.097280028

  length of vectors
     9.903090024 10.142605316 10.281174445     0.101017165  0.098641728  0.097280028


 FORCES acting on ions
    electron-ion (+dipol)            ewald-force                    non-local-force                 convergence-correction
 -----------------------------------------------------------------------------------------------
   -.163E+02 0.283E+02 0.398E+02   0.178E+02 -.307E+02 -.431E+02   -.161E+01 0.283E+01 0.398E+01   0.169E-04 -.397E-04 -.792E-04
   0.521E+02 -.610E+01 0.347E+01   -.575E+02 0.663E+01 -.379E+01   0.542E+01 -.678E+00 0.368E+00   -.715E-04 0.174E-04 -.178E-05
   -.215E+02 -.479E+02 0.933E+00   0.238E+02 0.528E+02 -.110E+01   -.219E+01 -.500E+01 0.710E-01   0.195E-04 0.836E-04 -.151E-05
   -.123E+02 0.229E+02 -.447E+02   0.134E+02 -.250E+02 0.486E+02   -.124E+01 0.228E+01 -.452E+01   0.685E-05 -.305E-04 0.905E-04
   -.223E+01 0.333E+01 0.624E+00   0.250E+01 -.375E+01 -.678E+00   -.379E-01 0.252E-01 0.384E-01   -.672E-04 0.832E-04 0.234E-04
 -----------------------------------------------------------------------------------------------
   -.343E+00 0.548E+00 0.615E-01   0.000E+00 0.000E+00 0.000E+00   0.343E+00 -.549E+00 -.617E-01   -.955E-04 0.114E-03 0.314E-04
 
 
 POSITION                                       TOTAL-FORCE (eV/Angst)
 -----------------------------------------------------------------------------------
      5.24894      4.18955      3.70550        -0.177754      0.475434      0.668669
      3.80486      4.93666      4.50282         0.005309     -0.145086      0.050713
      5.34146      5.81069      4.55594         0.120587     -0.136059     -0.096281
      5.15829      4.31381      5.54250        -0.179193      0.203424     -0.607270
      4.89333      4.80647      4.57453         0.230742     -0.398036     -0.016047
 -----------------------------------------------------------------------------------
    total drift:                               -0.000309     -0.000323     -0.000216


--------------------------------------------------------------------------------------------------------



  FREE ENERGIE OF THE ION-ELECTRON SYSTEM (eV)
  ---------------------------------------------------
  free  energy   TOTEN  =       -24.00550425 eV

  energy  without entropy=      -24.00550425  energy(sigma->0) =      -24.00550425
 


--------------------------------------------------------------------------------------------------------


    POTLOK:  cpu time    0.1468: real time    0.1500


--------------------------------------------------------------------------------------------------------


           RANDOM_SEED =         172204236                0                0
           RANDOM_SEED =         172204236               30                0
   IONSTEP:  cpu time    0.0036: real time    0.0104

  ENERGY OF THE ELECTRON-ION-THERMOSTAT SYSTEM (eV)
  ---------------------------------------------------
% ion-electron   TOTEN  =       -24.005504  see above
  kinetic energy EKIN   =         0.000371
  kin. lattice  EKIN_LAT=         0.000000  (temperature    0.72 K)
  nose potential ES     =         0.000000
  nose kinetic   EPS    =         0.000000
  ---------------------------------------------------
  total energy   ETOTAL =       -24.005133 eV

  maximum distance moved by ions :      0.20E-03

    WAVPRE:  cpu time    0.0464: real time    0.0471
    FEWALD:  cpu time    0.0010: real time    0.0010
    ORTHCH:  cpu time    0.0099: real time    0.0100
     LOOP+:  cpu time    8.1032: real time    8.2569


--------------------------------------- Iteration      2(   1)  ---------------------------------------


    POTLOK:  cpu time    0.1466: real time    0.1496
    SETDIJ:  cpu time    0.0029: real time    0.0029
     EDDAV:  cpu time    0.2309: real time    0.2329
       DOS:  cpu time    0.0002: real time    0.0002
    CHARGE:  cpu time    0.0202: real time    0.0205
    MIXING:  cpu time    0.0053: real time    0.0053
    --------------------------------------------
      LOOP:  cpu time    0.4061: real time    0.4114

 eigenvalue-minimisations  :    96
 total energy-change (2. order) :-0.2888588E-02  (-0.3211984E-03)
 number of electron       8.0000001 magnetization 
 augmentation part        0.1820928 magnetization 

 Broyden mixing:
  rms(total) = 0.29287E-02    rms(broyden)= 0.29273E-02
  rms(prec ) = 0.37611E-02
  weight for this iteration     100.00

 Free energy of the ion-electron system (eV)
  ---------------------------------------------------
  alpha Z        PSCENC =         0.23470526
  Ewald energy   TEWEN  =       127.30801383
  -Hartree energ DENC   =      -283.31740315
  -exchange      EXHF   =         0.00000000
  -V(xc)+E(xc)   XCENC  =        24.60860857
  PAW double counting   =       449.34878133     -450.12590973
  entropy T*S    EENTRO =        -0.00000000
  eigenvalues    EBANDS =       -89.10694294
  atomic energy  EATOM  =       197.04175453
  Solvation  Ediel_sol  =         0.00000000
  ---------------------------------------------------
  free energy    TOTEN  =       -24.00839229 eV

  energy without entropy =      -24.00839229  energy(sigma->0) =      -24.00839229


--------------------------------------------------------------------------------------------------------




--------------------------------------- Iteration      2(   2)  ---------------------------------------


    POTLOK:  cpu time    0.1556: real time    0.1574
    SETDIJ:  cpu time    0.0028: real time    0.0028
    EDDIAG:  cpu time    0.0432: real time    0.0436
  RMM-DIIS:  cpu time    0.1822: real time    0.1849
    ORTHCH:  cpu time    0.0025: real time    0.0025
       DOS:  cpu time    0.0002: real time    0.0002
    CHARGE:  cpu time    0.0199: real time    0.0200
    MIXING:  cpu time    0.0057: real time    0.0057
    --------------------------------------------
      LOOP:  cpu time    0.4120: real time    0.4172

 eigenvalue-minimisations  :    64
 total energy-change (2. order) : 0.1952900E-04  (-0.8691465E-05)
 number of electron       8.0000001 magnetization 
 augmentation part        0.1820370 magnetization 

 Broyden mixing:
  rms(total) = 0.13299E-02    rms(broyden)= 0.13296E-02
  rms(prec ) = 0.15963E-02
  weight for this iteration     100.00

 eigenvalues of (default mixing * dielectric matrix)
  average eigenvalue GAMMA=   1.6004
  1.6004

 Free energy of the ion-electron system (eV)
  ---------------------------------------------------
  alpha Z        PSCENC =         0.23470526
  Ewald energy   TEWEN  =       127.30801383
  -Hartree energ DENC   =      -283.36280199
  -exchange      EXHF   =         0.00000000
  -V(xc)+E(xc)   XCENC  =        24.61101042
  PAW double counting   =       449.95611267     -450.73377050
  entropy T*S    EENTRO =        -0.00000000
  eigenvalues    EBANDS =       -89.06339700
  atomic energy  EATOM  =       197.04175453
  Solvation  Ediel_sol  =         0.00000000
  ---------------------------------------------------
  free energy    TOTEN  =       -24.00837276 eV

  energy without entropy =      -24.00837276  energy(sigma->0) =      -24.00837276


--------------------------------------------------------------------------------------------------------




--------------------------------------- Iteration      2(   3)  ---------------------------------------


    POTLOK:  cpu time    0.1538: real time    0.1555
    SETDIJ:  cpu time    0.0028: real time    0.0028
    EDDIAG:  cpu time    0.0449: real time    0.0452
  RMM-DIIS:  cpu time    0.1780: real time    0.1805
    ORTHCH:  cpu time    0.0029: real time    0.0029
       DOS:  cpu time    0.0003: real time    0.0003
    CHARGE:  cpu time    0.0198: real time    0.0200
    MIXING:  cpu time    0.0059: real time    0.0059
    --------------------------------------------
      LOOP:  cpu time    0.4083: real time    0.4131

 eigenvalue-minimisations  :    64
 total energy-change (2. order) : 0.1304419E-06  (-0.2973862E-05)
 number of electron       8.0000001 magnetization 
 augmentation part        0.1819981 magnetization 

 Broyden mixing:
  rms(total) = 0.53779E-03    rms(broyden)= 0.53744E-03
  rms(prec ) = 0.62397E-03
  weight for this iteration     100.00

 eigenvalues of (default mixing * dielectric matrix)
  average eigenvalue GAMMA=   1.5736
  1.5736  1.5736

 Free energy of the ion-electron system (eV)
  ---------------------------------------------------
  alpha Z        PSCENC =         0.23470526
  Ewald energy   TEWEN  =       127.30801383
  -Hartree energ DENC   =      -283.38502437
  -exchange      EXHF   =         0.00000000
  -V(xc)+E(xc)   XCENC  =        24.61228295
  PAW double counting   =       450.37022571     -451.14815599
  entropy T*S    EENTRO =        -0.00000000
  eigenvalues    EBANDS =       -89.04217456
  atomic energy  EATOM  =       197.04175453
  Solvation  Ediel_sol  =         0.00000000
  ---------------------------------------------------
  free energy    TOTEN  =       -24.00837263 eV

  energy without entropy =      -24.00837263  energy(sigma->0) =      -24.00837263


--------------------------------------------------------------------------------------------------------




--------------------------------------- Iteration      2(   4)  ---------------------------------------


    POTLOK:  cpu time    0.1593: real time    0.1607
    SETDIJ:  cpu time    0.0028: real time    0.0028
    EDDIAG:  cpu time    0.0449: real time    0.0453
  RMM-DIIS:  cpu time    0.1448: real time    0.1466
    ORTHCH:  cpu time    0.0033: real time    0.0033
       DOS:  cpu time    0.0002: real time    0.0002
    --------------------------------------------
      LOOP:  cpu time    0.3552: real time    0.3588

 eigenvalue-minimisations  :    48
 total energy-change (2. order) :-0.1250222E-06  (-0.1045965E-06)
 number of electron       8.0000001 magnetization 
 augmentation part        0.1819981 magnetization 

 Free energy of the ion-electron system (eV)
  ---------------------------------------------------
  alpha Z        PSCENC =         0.23470526
  Ewald energy   TEWEN  =       127.30801383
  -Hartree energ DENC   =      -283.37825296
  -exchange      EXHF   =         0.00000000
  -V(xc)+E(xc)   XCENC  =        24.61207069
  PAW double counting   =       450.48802777     -451.26586431
  entropy T*S    EENTRO =        -0.00000000
  eigenvalues    EBANDS =       -89.04882757
  atomic energy  EATOM  =       197.04175453
  Solvation  Ediel_sol  =         0.00000000
  ---------------------------------------------------
  free energy    TOTEN  =       -24.00837276 eV

  energy without entropy =      -24.00837276  energy(sigma->0) =      -24.00837276


--------------------------------------------------------------------------------------------------------




 average (electrostatic) potential at core
  the test charge radii are     0.5201  0.6991
  (the norm of the test charge is              1.0000)
       1 -41.3548       2 -41.4861       3 -41.4823       4 -41.3780       5 -58.0390
 
 
 
 E-fermi :  -8.1977     XC(G=0):  -0.6973     alpha+bet : -0.2041


 k-point     1 :       0.2500    0.2500    0.2500
  band No.  band energies     occupation 
      1     -16.7983      2.00000
      2      -9.3021      2.00000
      3      -9.2772      2.00000
      4      -9.1469      2.00000
      5      -0.3384      0.00000
      6       0.5308      0.00000
      7       0.6498      0.00000
      8       0.6691      0.00000

 k-point     2 :      -0.2500    0.2500    0.2500
  band No.  band energies     occupation 
      1     -16.7983      2.00000
      2      -9.3021      2.00000
      3      -9.2772      2.00000
      4      -9.1468      2.00000
      5      -0.3419      0.00000
      6       0.5307      0.00000
      7       0.6501      0.00000
      8       0.6879      0.00000

 k-point     3 :       0.2500   -0.2500    0.2500
  band No.  band energies     occupation 
      1     -16.7982      2.00000
      2      -9.3021      2.00000
      3      -9.2771      2.00000
      4      -9.1468      2.00000
      5      -0.3405      0.00000
      6       0.5260      0.00000
      7       0.6447      0.00000
      8       0.6893      0.00000

 k-point     4 :      -0.2500   -0.2500    0.2500
  band No.  band energies     occupation 
      1     -16.7983      2.00000
      2      -9.3021      2.00000
      3      -9.2772      2.00000
      4      -9.1469      2.00000
      5      -0.3344      0.00000
      6       0.5216      0.00000
      7       0.6387      0.00000
      8       0.6580      0.00000


--------------------------------------------------------------------------------------------------------


 soft charge-density along one line, spin component           1
         0         1         2         3         4         5         6         7         8         9
 total charge-density along one line
 
 pseudopotential strength for first ion, spin component:           1
 -2.340  -4.032  -0.001  -0.001   0.001
 -4.032  -6.861  -0.003  -0.004   0.002
 -0.001  -0.003  -0.339   0.002  -0.001
 -0.001  -0.004   0.002  -0.337  -0.001
  0.001   0.002  -0.001  -0.001  -0.340
 total augmentation occupancy for first ion, spin component:           1
  3.451  -0.624   0.222   0.312  -0.127
 -0.624   0.126  -0.041  -0.058   0.024
  0.222  -0.041   0.020   0.017  -0.007
  0.312  -0.058   0.017   0.032  -0.010
 -0.127   0.024  -0.007  -0.010   0.012


------------------------ aborting loop because EDIFF is reached ----------------------------------------


    CHARGE:  cpu time    0.0204: real time    0.0205
    FORLOC:  cpu time    0.0161: real time    0.0163
    FORNL :  cpu time    0.0226: real time    0.0228
    STRESS:  cpu time    0.1809: real time    0.1819
    FORCOR:  cpu time    0.1514: real time    0.1526
    FORHAR:  cpu time    0.0494: real time    0.0498
    MIXING:  cpu time    0.0059: real time    0.0060
    OFIELD:  cpu time    0.0000: real time    0.0000

  FORCE on cell =-STRESS in cart. coord.  units (eV):
  Direction    XX          YY          ZZ          XY          YZ          ZX
  --------------------------------------------------------------------------------------
  Alpha Z     0.23471     0.23471     0.23471
  Ewald      43.83511    42.72620    40.74667    -1.43412     1.22492     1.25103
  Hartree    96.40618    94.18704    92.78511    -0.75595     0.55395     0.37175
  E(xc)     -27.08111   -27.06760   -27.06233    -0.00822     0.00670     0.00564
  Local    -199.18141  -195.65174  -192.58126     2.08564    -1.65019    -1.39184
  n-local   -15.66001   -15.61443   -15.53870    -0.02945     0.01687    -0.00875
  augment     0.12107     0.12006     0.12377     0.00023    -0.00063    -0.00173
  Kinetic   100.89528   100.18134    99.83603     0.44153    -0.34314    -0.25087
  Fock        0.00000     0.00000     0.00000     0.00000     0.00000     0.00000
  -------------------------------------------------------------------------------------
  Total      -0.43019    -0.88442    -1.45601     0.29965    -0.19151    -0.02478
  in kB      -0.66777    -1.37287    -2.26013     0.46515    -0.29728    -0.03846
  external pressure =       -1.43 kB  Pullay stress =        0.00 kB

  kinetic pressure (ideal gas correction) =      0.00 kB
  total pressure  =     -1.43 kB
  Total+kin.    -0.667      -1.372      -2.257       0.465      -0.297      -0.039

 VOLUME and BASIS-vectors are now :
 -----------------------------------------------------------------------------
  energy-cutoff  :      400.00
  volume of cell :     1032.15
      direct lattice vectors                 reciprocal lattice vectors
     9.903090024  0.000000000  0.000000000     0.100978583  0.002691213 -0.000742083
    -0.270217902 10.139005123  0.000000000     0.000000000  0.098629006 -0.001584192
     0.071143433  0.165112317 10.279602352     0.000000000  0.000000000  0.097280028

  length of vectors
     9.903090024 10.142605316 10.281174445     0.101017165  0.098641728  0.097280028


 FORCES acting on ions
    electron-ion (+dipol)            ewald-force                    non-local-force                 convergence-correction
 -----------------------------------------------------------------------------------------------
   -.164E+02 0.284E+02 0.398E+02   0.178E+02 -.308E+02 -.432E+02   -.162E+01 0.284E+01 0.400E+01   0.124E-03 -.217E-03 -.340E-04
   0.521E+02 -.609E+01 0.346E+01   -.575E+02 0.662E+01 -.378E+01   0.542E+01 -.676E+00 0.367E+00   0.335E-03 -.162E-03 -.159E-04
   -.216E+02 -.479E+02 0.944E+00   0.239E+02 0.528E+02 -.111E+01   -.220E+01 -.500E+01 0.726E-01   -.124E-04 -.343E-03 0.236E-05
   -.123E+02 0.229E+02 -.448E+02   0.134E+02 -.251E+02 0.488E+02   -.124E+01 0.229E+01 -.453E+01   0.123E-03 -.181E-03 -.387E-04
   -.214E+01 0.319E+01 0.604E+00   0.239E+01 -.359E+01 -.657E+00   -.496E-01 0.443E-01 0.397E-01   0.349E-04 -.918E-04 0.496E-05
 -----------------------------------------------------------------------------------------------
   -.314E+00 0.503E+00 0.568E-01   0.355E-14 0.355E-14 -.711E-14   0.313E+00 -.503E+00 -.569E-01   0.605E-03 -.996E-03 -.813E-04
 
 
 POSITION                                       TOTAL-FORCE (eV/Angst)
 -----------------------------------------------------------------------------------
      5.24851      4.19070      3.70711        -0.160765      0.442835      0.622641
      3.80488      4.93632      4.50294         0.004237     -0.141631      0.049721
      5.34175      5.81036      4.55571         0.119277     -0.129884     -0.094508
[...]

  ENERGY OF THE ELECTRON-ION-THERMOSTAT SYSTEM (eV)
  ---------------------------------------------------
% ion-electron   TOTEN  =       -24.018174  see above
  kinetic energy EKIN   =         0.012842
  kin. lattice  EKIN_LAT=         0.000000  (temperature   24.84 K)
  nose potential ES     =         0.000000
  nose kinetic   EPS    =         0.000000
  ---------------------------------------------------
  total energy   ETOTAL =       -24.005331 eV

  maximum distance moved by ions :      0.44E-03

    WAVPRE:  cpu time    0.0540: real time    0.0543
    FEWALD:  cpu time    0.0013: real time    0.0013
    ORTHCH:  cpu time    0.0108: real time    0.0108
 Prediction of Wavefunctions ALPHA= 2.220 BETA=-1.259
     LOOP+:  cpu time    2.1545: real time    2.1668


--------------------------------------- Iteration     10(   1)  ---------------------------------------


    POTLOK:  cpu time    0.1553: real time    0.1563
    SETDIJ:  cpu time    0.0033: real time    0.0033
     EDDAV:  cpu time    0.1685: real time    0.1692
       DOS:  cpu time    0.0002: real time    0.0002
    CHARGE:  cpu time    0.0196: real time    0.0197
    MIXING:  cpu time    0.0054: real time    0.0055
    --------------------------------------------
      LOOP:  cpu time    0.3523: real time    0.3542

 eigenvalue-minimisations  :    64
 total energy-change (2. order) : 0.4622318E-02  (-0.3893451E-04)
 number of electron       8.0000001 magnetization 
 augmentation part        0.1883754 magnetization 

 Broyden mixing:
  rms(total) = 0.16378E-03    rms(broyden)= 0.16315E-03
  rms(prec ) = 0.18391E-03
  weight for this iteration     100.00

 Free energy of the ion-electron system (eV)
  ---------------------------------------------------
  alpha Z        PSCENC =         0.23470526
  Ewald energy   TEWEN  =       132.69427760
  -Hartree energ DENC   =      -288.11216803
  -exchange      EXHF   =         0.00000000
  -V(xc)+E(xc)   XCENC  =        24.86264615
  PAW double counting   =       483.10776906     -483.90457498
  entropy T*S    EENTRO =        -0.00000000
  eigenvalues    EBANDS =       -89.93795996
  atomic energy  EATOM  =       197.04175453
  Solvation  Ediel_sol  =         0.00000000
  ---------------------------------------------------
  free energy    TOTEN  =       -24.01355038 eV

  energy without entropy =      -24.01355038  energy(sigma->0) =      -24.01355038


--------------------------------------------------------------------------------------------------------




--------------------------------------- Iteration     10(   2)  ---------------------------------------


    POTLOK:  cpu time    0.1526: real time    0.1540
    SETDIJ:  cpu time    0.0034: real time    0.0034
    EDDIAG:  cpu time    0.0423: real time    0.0425
  RMM-DIIS:  cpu time    0.1714: real time    0.1729
    ORTHCH:  cpu time    0.0017: real time    0.0017
       DOS:  cpu time    0.0002: real time    0.0003
    CHARGE:  cpu time    0.0194: real time    0.0199
    MIXING:  cpu time    0.0055: real time    0.0056
    --------------------------------------------
      LOOP:  cpu time    0.3965: real time    0.4005

 eigenvalue-minimisations  :    60
 total energy-change (2. order) :-0.1781610E-05  (-0.9301016E-06)
 number of electron       8.0000001 magnetization 
 augmentation part        0.1883802 magnetization 

 Broyden mixing:
  rms(total) = 0.16653E-03    rms(broyden)= 0.16603E-03
  rms(prec ) = 0.18037E-03
  weight for this iteration     100.00

 eigenvalues of (default mixing * dielectric matrix)
  average eigenvalue GAMMA=   0.4923
  0.4923

 Free energy of the ion-electron system (eV)
  ---------------------------------------------------
  alpha Z        PSCENC =         0.23470526
  Ewald energy   TEWEN  =       132.69427760
  -Hartree energ DENC   =      -288.11304190
  -exchange      EXHF   =         0.00000000
  -V(xc)+E(xc)   XCENC  =        24.86267095
  PAW double counting   =       483.12151717     -483.91830988
  entropy T*S    EENTRO =        -0.00000000
  eigenvalues    EBANDS =       -89.93712589
  atomic energy  EATOM  =       197.04175453
  Solvation  Ediel_sol  =         0.00000000
  ---------------------------------------------------
  free energy    TOTEN  =       -24.01355216 eV

  energy without entropy =      -24.01355216  energy(sigma->0) =      -24.01355216


--------------------------------------------------------------------------------------------------------




--------------------------------------- Iteration     10(   3)  ---------------------------------------


    POTLOK:  cpu time    0.1517: real time    0.1554
    SETDIJ:  cpu time    0.0034: real time    0.0035
    EDDIAG:  cpu time    0.0426: real time    0.0428
  RMM-DIIS:  cpu time    0.1423: real time    0.1446
    ORTHCH:  cpu time    0.0018: real time    0.0019
       DOS:  cpu time    0.0002: real time    0.0002
    CHARGE:  cpu time    0.0192: real time    0.0194
    MIXING:  cpu time    0.0057: real time    0.0057
    --------------------------------------------
      LOOP:  cpu time    0.3669: real time    0.3734

 eigenvalue-minimisations  :    48
 total energy-change (2. order) :-0.3103351E-06  (-0.2193231E-07)
 number of electron       8.0000001 magnetization 
 augmentation part        0.1883796 magnetization 

 Broyden mixing:
  rms(total) = 0.14538E-03    rms(broyden)= 0.14535E-03
  rms(prec ) = 0.15847E-03
  weight for this iteration     100.00

 eigenvalues of (default mixing * dielectric matrix)
  average eigenvalue GAMMA=   1.4824
  1.4824  1.4824

 Free energy of the ion-electron system (eV)
  ---------------------------------------------------
  alpha Z        PSCENC =         0.23470526
  Ewald energy   TEWEN  =       132.69427760
  -Hartree energ DENC   =      -288.11318592
  -exchange      EXHF   =         0.00000000
  -V(xc)+E(xc)   XCENC  =        24.86269157
  PAW double counting   =       483.10309650     -483.89988535
  entropy T*S    EENTRO =        -0.00000000
  eigenvalues    EBANDS =       -89.93700665
  atomic energy  EATOM  =       197.04175453
  Solvation  Ediel_sol  =         0.00000000
  ---------------------------------------------------
  free energy    TOTEN  =       -24.01355247 eV

  energy without entropy =      -24.01355247  energy(sigma->0) =      -24.01355247


--------------------------------------------------------------------------------------------------------




--------------------------------------- Iteration     10(   4)  ---------------------------------------


    POTLOK:  cpu time    0.1526: real time    0.1538
    SETDIJ:  cpu time    0.0029: real time    0.0029
    EDDIAG:  cpu time    0.0423: real time    0.0427
  RMM-DIIS:  cpu time    0.1384: real time    0.1411
    ORTHCH:  cpu time    0.0021: real time    0.0021
       DOS:  cpu time    0.0002: real time    0.0002
    CHARGE:  cpu time    0.0182: real time    0.0223
    MIXING:  cpu time    0.0054: real time    0.0064
    --------------------------------------------
      LOOP:  cpu time    0.3619: real time    0.3715

 eigenvalue-minimisations  :    40
 total energy-change (2. order) :-0.1273246E-05  (-0.4136724E-08)
 number of electron       8.0000001 magnetization 
 augmentation part        0.1883797 magnetization 

 Broyden mixing:
  rms(total) = 0.41165E-04    rms(broyden)= 0.41152E-04
  rms(prec ) = 0.50089E-04
  weight for this iteration     100.00

 eigenvalues of (default mixing * dielectric matrix)
  average eigenvalue GAMMA=   1.4801
  2.5325  1.1138  0.7941

 Free energy of the ion-electron system (eV)
  ---------------------------------------------------
  alpha Z        PSCENC =         0.23470526
  Ewald energy   TEWEN  =       132.69427760
  -Hartree energ DENC   =      -288.11307925
  -exchange      EXHF   =         0.00000000
  -V(xc)+E(xc)   XCENC  =        24.86273696
  PAW double counting   =       483.03413079     -483.83090129
  entropy T*S    EENTRO =        -0.00000000
  eigenvalues    EBANDS =       -89.93717835
  atomic energy  EATOM  =       197.04175453
  Solvation  Ediel_sol  =         0.00000000
  ---------------------------------------------------
  free energy    TOTEN  =       -24.01355374 eV

  energy without entropy =      -24.01355374  energy(sigma->0) =      -24.01355374


--------------------------------------------------------------------------------------------------------




--------------------------------------- Iteration     10(   5)  ---------------------------------------


    POTLOK:  cpu time    0.1551: real time    0.1659
    SETDIJ:  cpu time    0.0027: real time    0.0028
    EDDIAG:  cpu time    0.0441: real time    0.0496
  RMM-DIIS:  cpu time    0.2893: real time    0.2918
    ORTHCH:  cpu time    0.0352: real time    0.0353
       DOS:  cpu time    0.0002: real time    0.0002
    --------------------------------------------
      LOOP:  cpu time    0.5266: real time    0.5455

 eigenvalue-minimisations  :    44
 total energy-change (2. order) :-0.6305252E-06  (-0.5625264E-08)
 number of electron       8.0000001 magnetization 
 augmentation part        0.1883797 magnetization 

 Free energy of the ion-electron system (eV)
  ---------------------------------------------------
  alpha Z        PSCENC =         0.23470526
  Ewald energy   TEWEN  =       132.69427760
  -Hartree energ DENC   =      -288.11331402
  -exchange      EXHF   =         0.00000000
  -V(xc)+E(xc)   XCENC  =        24.86277139
  PAW double counting   =       483.00285778     -483.79962307
  entropy T*S    EENTRO =        -0.00000000
  eigenvalues    EBANDS =       -89.93698384
  atomic energy  EATOM  =       197.04175453
  Solvation  Ediel_sol  =         0.00000000
  ---------------------------------------------------
  free energy    TOTEN  =       -24.01355437 eV

  energy without entropy =      -24.01355437  energy(sigma->0) =      -24.01355437


--------------------------------------------------------------------------------------------------------




 average (electrostatic) potential at core
  the test charge radii are     0.5201  0.6991
  (the norm of the test charge is              1.0000)
       1 -41.6867       2 -41.4694       3 -41.4823       4 -41.6356       5 -57.8990
 
 
 
 E-fermi :  -8.2773     XC(G=0):  -0.6699     alpha+bet : -0.2041


 k-point     1 :       0.2500    0.2500    0.2500
  band No.  band energies     occupation 
      1     -16.9704      2.00000
      2      -9.4212      2.00000
      3      -9.3375      2.00000
      4      -9.2394      2.00000
      5      -0.3013      0.00000
      6       0.5637      0.00000
      7       0.6700      0.00000
      8       0.6845      0.00000

 k-point     2 :      -0.2500    0.2500    0.2500
  band No.  band energies     occupation 
      1     -16.9704      2.00000
      2      -9.4212      2.00000
      3      -9.3375      2.00000
      4      -9.2395      2.00000
      5      -0.3055      0.00000
      6       0.5674      0.00000
      7       0.6708      0.00000
      8       0.7037      0.00000

 k-point     3 :       0.2500   -0.2500    0.2500
  band No.  band energies     occupation 
      1     -16.9704      2.00000
      2      -9.4211      2.00000
      3      -9.3375      2.00000
      4      -9.2394      2.00000
      5      -0.3037      0.00000
      6       0.5598      0.00000
      7       0.6665      0.00000
      8       0.7048      0.00000

 k-point     4 :      -0.2500   -0.2500    0.2500
  band No.  band energies     occupation 
      1     -16.9704      2.00000
      2      -9.4211      2.00000
      3      -9.3375      2.00000
      4      -9.2395      2.00000
      5      -0.2970      0.00000
      6       0.5508      0.00000
      7       0.6613      0.00000
      8       0.6758      0.00000


--------------------------------------------------------------------------------------------------------


 soft charge-density along one line, spin component           1
         0         1         2         3         4         5         6         7         8         9
 total charge-density along one line
 
 pseudopotential strength for first ion, spin component:           1
 -2.343  -4.037  -0.001  -0.001   0.001
 -4.037  -6.871  -0.003  -0.005   0.002
 -0.001  -0.003  -0.336   0.002  -0.001
 -0.001  -0.005   0.002  -0.334  -0.001
  0.001   0.002  -0.001  -0.001  -0.337
 total augmentation occupancy for first ion, spin component:           1
  3.632  -0.649   0.251   0.355  -0.149
 -0.649   0.131  -0.046  -0.065   0.027
  0.251  -0.046   0.025   0.020  -0.009
  0.355  -0.065   0.020   0.039  -0.012
 -0.149   0.027  -0.009  -0.012   0.015


------------------------ aborting loop because EDIFF is reached ----------------------------------------


    CHARGE:  cpu time    0.1346: real time    0.1394
    FORLOC:  cpu time    0.0274: real time    0.0313
    FORNL :  cpu time    0.0362: real time    0.0364
    STRESS:  cpu time    0.1839: real time    0.1850
    FORCOR:  cpu time    0.1572: real time    0.1603
    FORHAR:  cpu time    0.0529: real time    0.0544
    MIXING:  cpu time    0.0061: real time    0.0062
    OFIELD:  cpu time    0.0001: real time    0.0001

  FORCE on cell =-STRESS in cart. coord.  units (eV):
  Direction    XX          YY          ZZ          XY          YZ          ZX
  --------------------------------------------------------------------------------------
  Alpha Z     0.23471     0.23471     0.23471
  Ewald      45.66059    43.75257    43.28110    -1.07488     0.72166     0.14402
  Hartree    98.56829    95.68770    93.85816    -0.38373     0.27428     0.16448
  E(xc)     -27.34227   -27.34051   -27.34200    -0.00085     0.00112     0.00156
  Local    -203.27445  -198.11058  -195.23774     1.21255    -0.84493    -0.34680
  n-local   -16.13588   -16.16115   -16.21500     0.01865    -0.00821     0.00763
  augment     0.11490     0.11108     0.10487     0.00241    -0.00148     0.00058
  Kinetic   101.97464   101.87674   101.93436     0.04714    -0.05991    -0.07203
  Fock        0.00000     0.00000     0.00000     0.00000     0.00000     0.00000
  -------------------------------------------------------------------------------------
  Total      -0.19949     0.05054     0.61844    -0.17871     0.08254    -0.10055
  in kB      -0.30966     0.07845     0.95998    -0.27741     0.12812    -0.15609
  external pressure =        0.24 kB  Pullay stress =        0.00 kB

  kinetic pressure (ideal gas correction) =      0.01 kB
  total pressure  =      0.25 kB
  Total+kin.    -0.306       0.088       0.979      -0.280       0.135      -0.155

 VOLUME and BASIS-vectors are now :
 -----------------------------------------------------------------------------
  energy-cutoff  :      400.00
  volume of cell :     1032.15
      direct lattice vectors                 reciprocal lattice vectors
     9.903090024  0.000000000  0.000000000     0.100978583  0.002691213 -0.000742083
    -0.270217902 10.139005123  0.000000000     0.000000000  0.098629006 -0.001584192
     0.071143433  0.165112317 10.279602352     0.000000000  0.000000000  0.097280028

  length of vectors
     9.903090024 10.142605316 10.281174445     0.101017165  0.098641728  0.097280028


 FORCES acting on ions
    electron-ion (+dipol)            ewald-force                    non-local-force                 convergence-correction
 -----------------------------------------------------------------------------------------------
   -.175E+02 0.296E+02 0.418E+02   0.197E+02 -.333E+02 -.469E+02   -.189E+01 0.320E+01 0.453E+01   0.351E-04 -.639E-04 -.109E-03
   0.526E+02 -.565E+01 0.326E+01   -.580E+02 0.622E+01 -.359E+01   0.544E+01 -.599E+00 0.336E+00   -.104E-03 0.205E-04 -.841E-06
   -.223E+02 -.482E+02 0.137E+01   0.247E+02 0.532E+02 -.153E+01   -.230E+01 -.500E+01 0.134E+00   0.389E-04 0.109E-03 -.448E-06
   -.127E+02 0.242E+02 -.465E+02   0.142E+02 -.270E+02 0.520E+02   -.135E+01 0.258E+01 -.499E+01   0.185E-04 -.440E-04 0.118E-03
   0.303E+00 -.560E+00 0.111E-01   -.495E+00 0.874E+00 0.277E-01   -.280E+00 0.433E+00 0.676E-01   -.401E-04 0.675E-04 0.461E-04
 -----------------------------------------------------------------------------------------------
   0.387E+00 -.618E+00 -.796E-01   -.178E-14 0.000E+00 -.710E-14   -.387E+00 0.617E+00 0.795E-01   -.512E-04 0.891E-04 0.539E-04
 
 
 POSITION                                       TOTAL-FORCE (eV/Angst)
 -----------------------------------------------------------------------------------
      5.24130      4.21877      3.74636         0.287298     -0.444688     -0.625468
      3.80523      4.92332      4.50752        -0.022122     -0.030788      0.007628
      5.35336      5.79963      4.54680         0.060127      0.036139     -0.025592
      5.14681      4.32299      5.50503         0.146798     -0.307128      0.536915
      4.89390      4.80530      4.57462        -0.472340      0.746303      0.106410
 -----------------------------------------------------------------------------------
    total drift:                               -0.000238     -0.000162     -0.000107


--------------------------------------------------------------------------------------------------------



  FREE ENERGIE OF THE ION-ELECTRON SYSTEM (eV)
  ---------------------------------------------------
  free  energy   TOTEN  =       -24.01355437 eV

  energy  without entropy=      -24.01355437  energy(sigma->0) =      -24.01355437
 
 d Force =-0.4622017E-02[-0.523E-02,-0.401E-02]  d Energy =-0.4619141E-02-0.288E-05
 d Force =-0.5101015E+00[-0.511E+00,-0.509E+00]  d Ewald  =-0.5100999E+00-0.163E-05


--------------------------------------------------------------------------------------------------------


    POTLOK:  cpu time    0.1584: real time    0.1597


--------------------------------------------------------------------------------------------------------


           RANDOM_SEED =         172204236               30                0
   IONSTEP:  cpu time    0.0001: real time    0.0001

  ENERGY OF THE ELECTRON-ION-THERMOSTAT SYSTEM (eV)
  ---------------------------------------------------
% ion-electron   TOTEN  =       -24.013554  see above
  kinetic energy EKIN   =         0.008335
  kin. lattice  EKIN_LAT=         0.000000  (temperature   16.12 K)
  nose potential ES     =         0.000000
  nose kinetic   EPS    =         0.000000
  ---------------------------------------------------
  total energy   ETOTAL =       -24.005220 eV

  maximum distance moved by ions :      0.32E-03


 mean value of Nose-termostat <S>:     1.000 mean value of <T> :    23.982
 mean temperature <T/S>/<1/S>  :    23.982

    WAVPRE:  cpu time    0.0575: real time    0.0581
    FEWALD:  cpu time    0.0011: real time    0.0011
    ORTHCH:  cpu time    0.0101: real time    0.0102
 Prediction of Wavefunctions ALPHA= 2.135 BETA=-1.162
    POTLOK:  cpu time    0.1642: real time    0.1674
    EDDIAG:  cpu time    0.0435: real time    0.0439
     LOOP+:  cpu time    3.0427: real time    3.1040
    4ORBIT:  cpu time    0.0000: real time    0.0009

 total amount of memory used by VASP MPI-rank0    56711. kBytes
=======================================================================

   base      :      30000. kBytes
   nonl-proj :       2787. kBytes
   fftplans  :       8579. kBytes
   grid      :      13527. kBytes
   one-center:          6. kBytes
   wavefun   :       1812. kBytes
 
  
  
 General timing and accounting informations for this job:
 ========================================================
  
                  Total CPU time used (sec):       32.777
                            User time (sec):       29.336
                          System time (sec):        3.441
                         Elapsed time (sec):       33.687
  
                   Maximum memory used (kb):      177772.
                   Average memory used (kb):           0.
  
                          Minor page faults:       267617
                          Major page faults:          131
                 Voluntary context switches:          578
